version 3
run General-0-20211230-13:29:18-8502
attr configname General
attr datetime 20211230-13:29:18
attr datetimef 20211230-132918
attr experiment General
attr inifile omnetpp.ini
attr iterationvars ""
attr iterationvarsd ""
attr iterationvarsf ""
attr measurement ""
attr network Red
attr processid 8502
attr repetition 0
attr replication #0
attr resultdir results
attr runnumber 0
attr seedset 0
config image-path ../../inet/images
config network Red
config sim-time-limit 2s
config **.h*.numApps 1
config **.h*.app[0].typename RdmaBasicApp
config **.h*.app[0].localPort 1000
config **.h*.app[0].destPort 1000
config **.hA.app[0].destAddresses "\"hD\""
config **.h*.app[*].messageLength 1000B
config **.h*.app[*].sendInterval 0.001s+uniform(-0.0001s,0.0001s)
config **.h*.**.**.channel.retardo 1us
config **.retardoRed 1us

vector 0 Red.hA.app[0] packetSent:vector(packetBytes) ETV
attr interpolationmode none
attr source packetSent
attr title "packets sent, vector(packetBytes)"
vector 1 Red.hA.rdma packetSent:vector(packetBytes) ETV
attr interpolationmode none
attr source packetSent
attr title "packets sent, vector(packetBytes)"
vector 2 Red.hA.ipv4.arp arpRequestSent:vector(packetBytes) ETV
attr source arpRequestSent
attr title "ARP request sent, vector(packetBytes)"
vector 3 Red.hA.eth[0].encap encapPk:vector(packetBytes) ETV
attr interpolationmode none
attr source encapPk
attr title "packets encapsulated, vector(packetBytes)"
vector 4 Red.hA.eth[0].mac packetReceivedFromUpper:vector(packetBytes) ETV
attr interpolationmode none
attr source packetReceivedFromUpper
attr title "packet bytes from higher layer, vector(packetBytes)"
vector 5 Red.hA.eth[0].mac.queue packetPushed:vector(packetBytes) ETV
attr interpolationmode none
attr title "packet pushed, vector(packetBytes)"
vector 6 Red.hA.eth[0].mac.queue queueLength:vector ETV
attr autoWarmupFilter false
attr interpolationmode sample-hold
attr source "warmup(count(packetPushed) - count(packetPulled) - count(packetRemoved) - count(packetDropped))"
attr title "queue length, vector"
attr type int
vector 7 Red.hA.eth[0].mac.queue packetPulled:vector(packetBytes) ETV
attr interpolationmode none
attr title "packet pulled, vector(packetBytes)"
vector 8 Red.hA.eth[0].mac.queue queueingTime:vector ETV
attr interpolationmode none
attr source queueingTime(packetPulled)
attr title "queueing times, vector"
attr unit s
vector 9 Red.hA.eth[0].mac txPk:vector(packetBytes) ETV
attr interpolationmode none
attr source packetSentToLower
attr title "packets transmitted, vector(packetBytes)"
vector 10 Red.switch1.eth[0].mac rxPkOk:vector(packetBytes) ETV
attr interpolationmode none
attr source rxPkOk
attr title "packets received OK, vector(packetBytes)"
vector 11 Red.switch1.eth[0].mac passedUpPk:vector(packetBytes) ETV
attr interpolationmode none
attr source packetSentToUpper
attr title "packets passed to higher layer, vector(packetBytes)"
vector 12 Red.switch1.eth[1].mac packetReceivedFromUpper:vector(packetBytes) ETV
attr interpolationmode none
attr source packetReceivedFromUpper
attr title "packet bytes from higher layer, vector(packetBytes)"
vector 13 Red.switch1.eth[1].mac.queue packetPushed:vector(packetBytes) ETV
attr interpolationmode none
attr title "packet pushed, vector(packetBytes)"
vector 14 Red.switch1.eth[1].mac.queue queueLength:vector ETV
attr autoWarmupFilter false
attr interpolationmode sample-hold
attr source "warmup(count(packetPushed) - count(packetPulled) - count(packetRemoved) - count(packetDropped))"
attr title "queue length, vector"
attr type int
vector 15 Red.switch1.eth[1].mac.queue packetPulled:vector(packetBytes) ETV
attr interpolationmode none
attr title "packet pulled, vector(packetBytes)"
vector 16 Red.switch1.eth[1].mac.queue queueingTime:vector ETV
attr interpolationmode none
attr source queueingTime(packetPulled)
attr title "queueing times, vector"
attr unit s
vector 17 Red.switch1.eth[2].mac packetReceivedFromUpper:vector(packetBytes) ETV
attr interpolationmode none
attr source packetReceivedFromUpper
attr title "packet bytes from higher layer, vector(packetBytes)"
vector 18 Red.switch1.eth[2].mac.queue packetPushed:vector(packetBytes) ETV
attr interpolationmode none
attr title "packet pushed, vector(packetBytes)"
vector 19 Red.switch1.eth[2].mac.queue queueLength:vector ETV
attr autoWarmupFilter false
attr interpolationmode sample-hold
attr source "warmup(count(packetPushed) - count(packetPulled) - count(packetRemoved) - count(packetDropped))"
attr title "queue length, vector"
attr type int
vector 20 Red.switch1.eth[2].mac.queue packetPulled:vector(packetBytes) ETV
attr interpolationmode none
attr title "packet pulled, vector(packetBytes)"
vector 21 Red.switch1.eth[2].mac.queue queueingTime:vector ETV
attr interpolationmode none
attr source queueingTime(packetPulled)
attr title "queueing times, vector"
attr unit s
vector 22 Red.switch1.eth[1].mac txPk:vector(packetBytes) ETV
attr interpolationmode none
attr source packetSentToLower
attr title "packets transmitted, vector(packetBytes)"
vector 23 Red.switch1.eth[2].mac txPk:vector(packetBytes) ETV
attr interpolationmode none
attr source packetSentToLower
attr title "packets transmitted, vector(packetBytes)"
vector 24 Red.hB.eth[0].mac rxPkOk:vector(packetBytes) ETV
attr interpolationmode none
attr source rxPkOk
attr title "packets received OK, vector(packetBytes)"
vector 25 Red.hB.eth[0].mac passedUpPk:vector(packetBytes) ETV
attr interpolationmode none
attr source packetSentToUpper
attr title "packets passed to higher layer, vector(packetBytes)"
vector 26 Red.switch2.eth[2].mac rxPkOk:vector(packetBytes) ETV
attr interpolationmode none
attr source rxPkOk
attr title "packets received OK, vector(packetBytes)"
vector 27 Red.switch2.eth[2].mac passedUpPk:vector(packetBytes) ETV
attr interpolationmode none
attr source packetSentToUpper
attr title "packets passed to higher layer, vector(packetBytes)"
vector 28 Red.hB.eth[0].encap decapPk:vector(packetBytes) ETV
attr interpolationmode none
attr source decapPk
attr title "packets decapsulated, vector(packetBytes)"
vector 29 Red.switch2.eth[0].mac packetReceivedFromUpper:vector(packetBytes) ETV
attr interpolationmode none
attr source packetReceivedFromUpper
attr title "packet bytes from higher layer, vector(packetBytes)"
vector 30 Red.switch2.eth[0].mac.queue packetPushed:vector(packetBytes) ETV
attr interpolationmode none
attr title "packet pushed, vector(packetBytes)"
vector 31 Red.switch2.eth[0].mac.queue queueLength:vector ETV
attr autoWarmupFilter false
attr interpolationmode sample-hold
attr source "warmup(count(packetPushed) - count(packetPulled) - count(packetRemoved) - count(packetDropped))"
attr title "queue length, vector"
attr type int
vector 32 Red.switch2.eth[0].mac.queue packetPulled:vector(packetBytes) ETV
attr interpolationmode none
attr title "packet pulled, vector(packetBytes)"
vector 33 Red.switch2.eth[0].mac.queue queueingTime:vector ETV
attr interpolationmode none
attr source queueingTime(packetPulled)
attr title "queueing times, vector"
attr unit s
vector 34 Red.switch2.eth[1].mac packetReceivedFromUpper:vector(packetBytes) ETV
attr interpolationmode none
attr source packetReceivedFromUpper
attr title "packet bytes from higher layer, vector(packetBytes)"
vector 35 Red.switch2.eth[1].mac.queue packetPushed:vector(packetBytes) ETV
attr interpolationmode none
attr title "packet pushed, vector(packetBytes)"
vector 36 Red.switch2.eth[1].mac.queue queueLength:vector ETV
attr autoWarmupFilter false
attr interpolationmode sample-hold
attr source "warmup(count(packetPushed) - count(packetPulled) - count(packetRemoved) - count(packetDropped))"
attr title "queue length, vector"
attr type int
vector 37 Red.switch2.eth[1].mac.queue packetPulled:vector(packetBytes) ETV
attr interpolationmode none
attr title "packet pulled, vector(packetBytes)"
vector 38 Red.switch2.eth[1].mac.queue queueingTime:vector ETV
attr interpolationmode none
attr source queueingTime(packetPulled)
attr title "queueing times, vector"
attr unit s
vector 39 Red.switch2.eth[0].mac txPk:vector(packetBytes) ETV
attr interpolationmode none
attr source packetSentToLower
attr title "packets transmitted, vector(packetBytes)"
vector 40 Red.switch2.eth[1].mac txPk:vector(packetBytes) ETV
attr interpolationmode none
attr source packetSentToLower
attr title "packets transmitted, vector(packetBytes)"
vector 41 Red.hC.eth[0].mac rxPkOk:vector(packetBytes) ETV
attr interpolationmode none
attr source rxPkOk
attr title "packets received OK, vector(packetBytes)"
vector 42 Red.hC.eth[0].mac passedUpPk:vector(packetBytes) ETV
attr interpolationmode none
attr source packetSentToUpper
attr title "packets passed to higher layer, vector(packetBytes)"
vector 43 Red.hD.eth[0].mac rxPkOk:vector(packetBytes) ETV
attr interpolationmode none
attr source rxPkOk
attr title "packets received OK, vector(packetBytes)"
vector 44 Red.hD.eth[0].mac passedUpPk:vector(packetBytes) ETV
attr interpolationmode none
attr source packetSentToUpper
attr title "packets passed to higher layer, vector(packetBytes)"
vector 45 Red.hC.eth[0].encap decapPk:vector(packetBytes) ETV
attr interpolationmode none
attr source decapPk
attr title "packets decapsulated, vector(packetBytes)"
vector 46 Red.hD.eth[0].encap decapPk:vector(packetBytes) ETV
attr interpolationmode none
attr source decapPk
attr title "packets decapsulated, vector(packetBytes)"
vector 47 Red.hD.ipv4.arp arpReplySent:vector(packetBytes) ETV
attr source arpReplySent
attr title "ARP replies sent, vector(packetBytes)"
vector 48 Red.hD.eth[0].encap encapPk:vector(packetBytes) ETV
attr interpolationmode none
attr source encapPk
attr title "packets encapsulated, vector(packetBytes)"
vector 49 Red.hD.eth[0].mac packetReceivedFromUpper:vector(packetBytes) ETV
attr interpolationmode none
attr source packetReceivedFromUpper
attr title "packet bytes from higher layer, vector(packetBytes)"
vector 50 Red.hD.eth[0].mac.queue packetPushed:vector(packetBytes) ETV
attr interpolationmode none
attr title "packet pushed, vector(packetBytes)"
vector 51 Red.hD.eth[0].mac.queue queueLength:vector ETV
attr autoWarmupFilter false
attr interpolationmode sample-hold
attr source "warmup(count(packetPushed) - count(packetPulled) - count(packetRemoved) - count(packetDropped))"
attr title "queue length, vector"
attr type int
vector 52 Red.hD.eth[0].mac.queue packetPulled:vector(packetBytes) ETV
attr interpolationmode none
attr title "packet pulled, vector(packetBytes)"
vector 53 Red.hD.eth[0].mac.queue queueingTime:vector ETV
attr interpolationmode none
attr source queueingTime(packetPulled)
attr title "queueing times, vector"
attr unit s
vector 54 Red.hD.eth[0].mac txPk:vector(packetBytes) ETV
attr interpolationmode none
attr source packetSentToLower
attr title "packets transmitted, vector(packetBytes)"
vector 55 Red.switch2.eth[1].mac rxPkOk:vector(packetBytes) ETV
attr interpolationmode none
attr source rxPkOk
attr title "packets received OK, vector(packetBytes)"
vector 56 Red.switch2.eth[1].mac passedUpPk:vector(packetBytes) ETV
attr interpolationmode none
attr source packetSentToUpper
attr title "packets passed to higher layer, vector(packetBytes)"
vector 57 Red.switch2.eth[2].mac packetReceivedFromUpper:vector(packetBytes) ETV
attr interpolationmode none
attr source packetReceivedFromUpper
attr title "packet bytes from higher layer, vector(packetBytes)"
vector 58 Red.switch2.eth[2].mac.queue packetPushed:vector(packetBytes) ETV
attr interpolationmode none
attr title "packet pushed, vector(packetBytes)"
vector 59 Red.switch2.eth[2].mac.queue queueLength:vector ETV
attr autoWarmupFilter false
attr interpolationmode sample-hold
attr source "warmup(count(packetPushed) - count(packetPulled) - count(packetRemoved) - count(packetDropped))"
attr title "queue length, vector"
attr type int
vector 60 Red.switch2.eth[2].mac.queue packetPulled:vector(packetBytes) ETV
attr interpolationmode none
attr title "packet pulled, vector(packetBytes)"
vector 61 Red.switch2.eth[2].mac.queue queueingTime:vector ETV
attr interpolationmode none
attr source queueingTime(packetPulled)
attr title "queueing times, vector"
attr unit s
vector 62 Red.switch2.eth[2].mac txPk:vector(packetBytes) ETV
attr interpolationmode none
attr source packetSentToLower
attr title "packets transmitted, vector(packetBytes)"
vector 63 Red.switch1.eth[2].mac rxPkOk:vector(packetBytes) ETV
attr interpolationmode none
attr source rxPkOk
attr title "packets received OK, vector(packetBytes)"
vector 64 Red.switch1.eth[2].mac passedUpPk:vector(packetBytes) ETV
attr interpolationmode none
attr source packetSentToUpper
attr title "packets passed to higher layer, vector(packetBytes)"
vector 65 Red.switch1.eth[0].mac packetReceivedFromUpper:vector(packetBytes) ETV
attr interpolationmode none
attr source packetReceivedFromUpper
attr title "packet bytes from higher layer, vector(packetBytes)"
vector 66 Red.switch1.eth[0].mac.queue packetPushed:vector(packetBytes) ETV
attr interpolationmode none
attr title "packet pushed, vector(packetBytes)"
vector 67 Red.switch1.eth[0].mac.queue queueLength:vector ETV
attr autoWarmupFilter false
attr interpolationmode sample-hold
attr source "warmup(count(packetPushed) - count(packetPulled) - count(packetRemoved) - count(packetDropped))"
attr title "queue length, vector"
attr type int
vector 68 Red.switch1.eth[0].mac.queue packetPulled:vector(packetBytes) ETV
attr interpolationmode none
attr title "packet pulled, vector(packetBytes)"
vector 69 Red.switch1.eth[0].mac.queue queueingTime:vector ETV
attr interpolationmode none
attr source queueingTime(packetPulled)
attr title "queueing times, vector"
attr unit s
vector 70 Red.switch1.eth[0].mac txPk:vector(packetBytes) ETV
attr interpolationmode none
attr source packetSentToLower
attr title "packets transmitted, vector(packetBytes)"
vector 71 Red.hA.eth[0].mac rxPkOk:vector(packetBytes) ETV
attr interpolationmode none
attr source rxPkOk
attr title "packets received OK, vector(packetBytes)"
vector 72 Red.hA.eth[0].mac passedUpPk:vector(packetBytes) ETV
attr interpolationmode none
attr source packetSentToUpper
attr title "packets passed to higher layer, vector(packetBytes)"
vector 73 Red.hA.eth[0].encap decapPk:vector(packetBytes) ETV
attr interpolationmode none
attr source decapPk
attr title "packets decapsulated, vector(packetBytes)"
vector 74 Red.hD.app[0] packetReceived:vector(packetBytes) ETV
attr interpolationmode none
attr source packetReceived
attr title "packets received, vector(packetBytes)"
vector 75 Red.hD.app[0] rcvdPkLifetime:vector ETV
attr interpolationmode none
attr source dataAge(packetReceived)
attr title "received packet lifetime, vector"
attr unit s
vector 76 Red.hD.app[0] throughput:vector ETV
attr source throughput(packetReceived)
attr title "throughput, vector"
attr unit bps
vector 77 Red.hA.app[0] throughput:vector ETV
attr source throughput(packetReceived)
attr title "throughput, vector"
attr unit bps
vector 78 Red.hB.app[0] throughput:vector ETV
attr source throughput(packetReceived)
attr title "throughput, vector"
attr unit bps
vector 79 Red.hC.app[0] throughput:vector ETV
attr source throughput(packetReceived)
attr title "throughput, vector"
attr unit bps
0	1	0.0010097627	1000
0	70	0.002081351824	1000
0	90	0.003150802171	1000
0	110	0.00417551491	1000
0	130	0.005152391252	1000
0	150	0.006111898173	1000
0	170	0.007023240768	1000
0	190	0.007977772027	1000
0	210	0.008973305049	1000
0	230	0.010035738794	1000
0	250	0.011031734228	1000
0	270	0.012010291187	1000
0	290	0.013077506941	1000
0	310	0.014044986173	1000
0	330	0.015074620548	1000
0	350	0.016048268855	1000
0	370	0.017139699886	1000
0	390	0.018067770041	1000
0	410	0.019141787491	1000
0	430	0.020136509099	1000
0	450	0.021196691249	1000
0	470	0.022200786745	1000
0	490	0.023236562652	1000
0	510	0.024280689182	1000
0	530	0.02529709314	1000
0	550	0.026304567786	1000
0	570	0.02735629091	1000
0	590	0.028277472431	1000
0	610	0.029272192516	1000
0	630	0.030209458985	1000
0	650	0.031256842621	1000
0	670	0.032200152692	1000
0	690	0.033127196327	1000
0	710	0.034092024528	1000
0	730	0.035021959501	1000
0	750	0.035966423778	1000
0	770	0.036943721574	1000
0	790	0.038024241268	1000
0	810	0.039014231266	1000
0	830	0.040036843958	1000
0	850	0.041117313674	1000
0	870	0.042037169744	1000
0	890	0.043131131558	1000
0	910	0.044161759564	1000
0	930	0.045095941481	1000
0	950	0.046067571915	1000
0	970	0.047117709143	1000
0	990	0.048139275276	1000
0	1010	0.049104284722	1000
0	1030	0.050011969807	1000
0	1050	0.051038824618	1000
0	1070	0.052130614472	1000
0	1090	0.053161172536	1000
0	1110	0.054188184311	1000
0	1130	0.055287244224	1000
0	1150	0.05630361429	1000
0	1170	0.057286488008	1000
0	1190	0.058281427509	1000
0	1210	0.05930612953	1000
0	1230	0.060273731054	1000
0	1250	0.061308681518	1000
0	1270	0.062272121867	1000
0	1290	0.063327790963	1000
0	1310	0.064417705173	1000
0	1330	0.065450210547	1000
0	1350	0.066352924875	1000
0	1370	0.067377494094	1000
0	1390	0.06841222602	1000
0	1410	0.06950661502	1000
0	1430	0.070582253714	1000
0	1450	0.071584178588	1000
0	1470	0.072495321527	1000
0	1490	0.07348555337	1000
0	1510	0.074389550904	1000
0	1530	0.075377893088	1000
0	1550	0.076473810434	1000
0	1570	0.077445699328	1000
0	1590	0.078441878035	1000
0	1610	0.079479610272	1000
0	1630	0.080555705451	1000
0	1650	0.081639352546	1000
0	1670	0.082582716973	1000
0	1690	0.083595754746	1000
0	1710	0.084668775259	1000
0	1730	0.085670569051	1000
0	1750	0.086753913642	1000
0	1770	0.087838145164	1000
0	1790	0.088754767661	1000
0	1810	0.089710311374	1000
0	1830	0.090612182714	1000
0	1850	0.09168065113	1000
0	1870	0.092710085958	1000
0	1890	0.093778363182	1000
0	1910	0.094731309215	1000
0	1930	0.095710873365	1000
0	1950	0.096721437662	1000
0	1970	0.097654425754	1000
0	1990	0.098628387373	1000
0	2010	0.099557675726	1000
0	2030	0.100571599407	1000
0	2050	0.101612346863	1000
0	2070	0.102570042149	1000
0	2090	0.103556699762	1000
0	2110	0.1046079211	1000
0	2130	0.105587140756	1000
0	2150	0.106666348434	1000
0	2170	0.10769413265	1000
0	2190	0.108772443536	1000
0	2210	0.109808454651	1000
0	2230	0.110798294197	1000
0	2250	0.111894008382	1000
0	2270	0.112817248764	1000
0	2290	0.113870653505	1000
0	2310	0.114853017533	1000
0	2330	0.115888105348	1000
0	2350	0.116838064603	1000
0	2370	0.117800708269	1000
0	2390	0.118893791513	1000
0	2410	0.11991148453	1000
0	2430	0.120943418213	1000
0	2450	0.121950059463	1000
0	2470	0.122896166068	1000
0	2490	0.123875139926	1000
0	2510	0.124898901638	1000
0	2530	0.125893875142	1000
0	2550	0.12688790158	1000
0	2570	0.127931116487	1000
0	2590	0.128888714688	1000
0	2610	0.129865407133	1000
0	2630	0.1309152411	1000
0	2650	0.131990931538	1000
0	2670	0.13291150421	1000
0	2690	0.133829978987	1000
0	2710	0.13480078832	1000
0	2730	0.135811151571	1000
0	2750	0.13671787659	1000
0	2770	0.137811668943	1000
0	2790	0.138775868392	1000
0	2810	0.139720120929	1000
0	2830	0.14064837371	1000
0	2850	0.141567825695	1000
0	2870	0.142664634142	1000
0	2890	0.143616702328	1000
0	2910	0.144624106831	1000
0	2930	0.145613692066	1000
0	2950	0.146533605883	1000
0	2970	0.147504068215	1000
0	2990	0.148497918049	1000
0	3010	0.149566146075	1000
0	3030	0.150647075624	1000
0	3050	0.151554587501	1000
0	3070	0.152556250591	1000
0	3090	0.153489620095	1000
0	3110	0.154545430299	1000
0	3130	0.155618416958	1000
0	3150	0.156600696303	1000
0	3170	0.15752869082	1000
0	3190	0.158435335297	1000
0	3210	0.159531850288	1000
0	3230	0.160506508439	1000
0	3250	0.161490523513	1000
0	3270	0.162400641136	1000
0	3290	0.163373740356	1000
0	3310	0.16427706595	1000
0	3330	0.165223214418	1000
0	3350	0.166276196758	1000
0	3370	0.167365021462	1000
0	3390	0.168415021312	1000
0	3410	0.169382902075	1000
0	3430	0.170380811863	1000
0	3450	0.171348608886	1000
0	3470	0.17228450694	1000
0	3490	0.173218704259	1000
0	3510	0.174211394454	1000
0	3530	0.175286309046	1000
0	3550	0.176375132996	1000
0	3570	0.17739678357	1000
0	3590	0.178416114653	1000
0	3610	0.179472843503	1000
0	3630	0.180472848762	1000
0	3650	0.181382922774	1000
0	3670	0.18242274239	1000
0	3690	0.183521221669	1000
0	3710	0.184474674176	1000
0	3730	0.1855104923	1000
0	3750	0.186583348588	1000
0	3770	0.187633517437	1000
0	3790	0.18872641539	1000
0	3810	0.189737263877	1000
0	3830	0.190679741977	1000
0	3850	0.191624230622	1000
0	3870	0.192567980496	1000
0	3890	0.193581895202	1000
0	3910	0.19457231701	1000
0	3930	0.195666364347	1000
0	3950	0.196702473286	1000
0	3970	0.197619532399	1000
0	3990	0.198530816066	1000
0	4010	0.199528383607	1000
0	4030	0.200604584519	1000
0	4050	0.201699865397	1000
0	4070	0.202723396981	1000
0	4090	0.203731896736	1000
0	4110	0.204802819453	1000
0	4130	0.205851586361	1000
0	4150	0.206847305626	1000
0	4170	0.207882721941	1000
0	4190	0.208904130953	1000
0	4210	0.20994707034	1000
0	4230	0.210940969778	1000
0	4250	0.211932172703	1000
0	4270	0.213013456321	1000
0	4290	0.213940900405	1000
0	4310	0.21488674427	1000
0	4330	0.215963061351	1000
0	4350	0.217043946346	1000
0	4370	0.218073103266	1000
0	4390	0.219038039861	1000
0	4410	0.220041982099	1000
0	4430	0.220941993169	1000
0	4450	0.221904365213	1000
0	4470	0.22288945552	1000
0	4490	0.223966523053	1000
0	4510	0.225002498944	1000
0	4530	0.225993724898	1000
0	4550	0.226990406622	1000
0	4570	0.228048154506	1000
0	4590	0.228994042872	1000
0	4610	0.230070102393	1000
0	4630	0.231032840872	1000
0	4650	0.232124331043	1000
0	4670	0.233118681358	1000
0	4690	0.234160998122	1000
0	4710	0.235091736983	1000
0	4730	0.236137825419	1000
0	4750	0.237167078306	1000
0	4770	0.238110054453	1000
0	4790	0.239047346097	1000
0	4810	0.24010886215	1000
0	4830	0.241158278044	1000
0	4850	0.242193247513	1000
0	4870	0.243148626263	1000
0	4890	0.244083608037	1000
0	4910	0.245124502889	1000
0	4930	0.246117132928	1000
0	4950	0.247185218635	1000
0	4970	0.248126191787	1000
0	4990	0.249059183561	1000
0	5010	0.249984150173	1000
0	5030	0.251028566305	1000
0	5050	0.251934656898	1000
0	5070	0.252984055746	1000
0	5090	0.253902574978	1000
0	5110	0.254846065077	1000
0	5130	0.25589591596	1000
0	5150	0.256942254712	1000
0	5170	0.257851377639	1000
0	5190	0.258793209045	1000
0	5210	0.259750592054	1000
0	5230	0.260786044715	1000
0	5250	0.261698652374	1000
0	5270	0.262709782221	1000
0	5290	0.263611630235	1000
0	5310	0.264678237854	1000
0	5330	0.265775103741	1000
0	5350	0.266815802698	1000
0	5370	0.267752128939	1000
0	5390	0.268754607632	1000
0	5410	0.269770697058	1000
0	5430	0.270828205489	1000
0	5450	0.271849500581	1000
0	5470	0.272793181151	1000
0	5490	0.273784214914	1000
0	5510	0.274859988862	1000
0	5530	0.27585844251	1000
0	5550	0.27690155474	1000
0	5570	0.277898786652	1000
0	5590	0.278940496282	1000
0	5610	0.279940124328	1000
0	5630	0.281009034344	1000
0	5650	0.281947902788	1000
0	5670	0.283002567991	1000
0	5690	0.284097419725	1000
0	5710	0.285169881681	1000
0	5730	0.286225967011	1000
0	5750	0.287322973467	1000
0	5770	0.288373687388	1000
0	5790	0.289274497009	1000
0	5810	0.290228392896	1000
0	5830	0.291210491324	1000
0	5850	0.292196136089	1000
0	5870	0.293155704453	1000
0	5890	0.294135930921	1000
0	5910	0.29506006232	1000
0	5930	0.296156202255	1000
0	5950	0.297137426352	1000
0	5970	0.298151268503	1000
0	5990	0.299119989603	1000
0	6010	0.300177764158	1000
0	6030	0.301160038641	1000
0	6050	0.302131892924	1000
0	6070	0.303111792707	1000
0	6090	0.304072158882	1000
0	6110	0.305127202838	1000
0	6130	0.306212445425	1000
0	6150	0.307177507487	1000
0	6170	0.308268081621	1000
0	6190	0.309170871301	1000
0	6210	0.310177564436	1000
0	6230	0.311138480842	1000
0	6250	0.312215052842	1000
0	6270	0.313165177386	1000
0	6290	0.314200659751	1000
0	6310	0.31526274457	1000
0	6330	0.31624917418	1000
0	6350	0.317299601084	1000
0	6370	0.318365521532	1000
0	6390	0.319341328287	1000
0	6410	0.32026063821	1000
0	6430	0.321211866127	1000
0	6450	0.32223025316	1000
0	6470	0.323225548601	1000
0	6490	0.324223135515	1000
0	6510	0.325214838426	1000
0	6530	0.326219756949	1000
0	6550	0.327208160013	1000
0	6570	0.328278686998	1000
0	6590	0.329265374793	1000
0	6610	0.330330748867	1000
0	6630	0.33133261728	1000
0	6650	0.332249892676	1000
0	6670	0.333281900648	1000
0	6690	0.334223219569	1000
0	6710	0.335292674632	1000
0	6730	0.336328946459	1000
0	6750	0.33726461993	1000
0	6770	0.338178591733	1000
0	6790	0.339080529368	1000
0	6810	0.3401589393	1000
0	6830	0.341085632342	1000
0	6850	0.342141470736	1000
0	6870	0.343226503422	1000
0	6890	0.344269539172	1000
0	6910	0.345267702895	1000
0	6930	0.346261602556	1000
0	6950	0.347338144413	1000
0	6970	0.348335826425	1000
0	6990	0.349318739921	1000
0	7010	0.350253562311	1000
0	7030	0.3512486202	1000
0	7050	0.352305349794	1000
0	7070	0.353316635679	1000
0	7090	0.354248609095	1000
0	7110	0.355177374968	1000
0	7130	0.356207267574	1000
0	7150	0.357215112293	1000
0	7170	0.358180249246	1000
0	7190	0.359109652024	1000
0	7210	0.360041626037	1000
0	7230	0.360967508505	1000
0	7250	0.361983292982	1000
0	7270	0.362901745016	1000
0	7290	0.36398385396	1000
0	7310	0.364900448309	1000
0	7330	0.365960524001	1000
0	7350	0.367035950195	1000
0	7370	0.367954642086	1000
0	7390	0.368939903262	1000
0	7410	0.369934547396	1000
0	7430	0.370950586818	1000
0	7450	0.371993835652	1000
0	7470	0.372899249449	1000
0	7490	0.373945528917	1000
0	7510	0.374998921618	1000
0	7530	0.375900874904	1000
0	7550	0.376862532137	1000
0	7570	0.377809105232	1000
0	7590	0.378809790717	1000
0	7610	0.379900534993	1000
0	7630	0.380912097253	1000
0	7650	0.38183159099	1000
0	7670	0.382855926688	1000
0	7690	0.383928531211	1000
0	7710	0.384860057665	1000
0	7730	0.385958543569	1000
0	7750	0.386875543783	1000
0	7770	0.387794435366	1000
0	7790	0.388821156944	1000
0	7810	0.38991101644	1000
0	7830	0.390998365735	1000
0	7850	0.391987841395	1000
0	7870	0.393033380662	1000
0	7890	0.394081828258	1000
0	7910	0.395043225469	1000
0	7930	0.395967179739	1000
0	7950	0.396955955475	1000
0	7970	0.39793431034	1000
0	7990	0.398940680176	1000
0	8010	0.400009751713	1000
0	8030	0.40101700662	1000
0	8050	0.402053060651	1000
0	8070	0.403074896167	1000
0	8090	0.403994591768	1000
0	8110	0.404912997285	1000
0	8130	0.405824190451	1000
0	8150	0.406741496949	1000
0	8170	0.407688931607	1000
0	8190	0.408756834201	1000
0	8210	0.409761308308	1000
0	8230	0.410763923281	1000
0	8250	0.411793889676	1000
0	8270	0.412802807851	1000
0	8290	0.41370930091	1000
0	8310	0.414725331254	1000
0	8330	0.415779549064	1000
0	8350	0.41675479438	1000
0	8370	0.417752999328	1000
0	8390	0.418849327264	1000
0	8410	0.419798257546	1000
0	8430	0.420773122185	1000
0	8450	0.421682254113	1000
0	8470	0.422644267642	1000
0	8490	0.423710571522	1000
0	8510	0.42477197609	1000
0	8530	0.425799980921	1000
0	8550	0.426773601402	1000
0	8570	0.427736152061	1000
0	8590	0.428796519291	1000
0	8610	0.429710608729	1000
0	8630	0.430747323321	1000
0	8650	0.43172346917	1000
0	8670	0.432750255361	1000
0	8690	0.433835631179	1000
0	8710	0.434906419202	1000
0	8730	0.435905954798	1000
0	8750	0.436891521675	1000
0	8770	0.437956033564	1000
0	8790	0.43900367888	1000
0	8810	0.439993107648	1000
0	8830	0.441086888255	1000
0	8850	0.442059520505	1000
0	8870	0.443039027205	1000
0	8890	0.444086763737	1000
0	8910	0.445076580422	1000
0	8930	0.446164037295	1000
0	8950	0.447115483992	1000
0	8970	0.448091835952	1000
0	8990	0.449131264274	1000
0	9010	0.450210678295	1000
0	9030	0.45113489027	1000
0	9050	0.452083199408	1000
0	9070	0.453028852131	1000
0	9090	0.454026753995	1000
0	9110	0.455105058532	1000
0	9130	0.456076680027	1000
0	9150	0.457053727512	1000
0	9170	0.458137072915	1000
0	9190	0.459059836243	1000
0	9210	0.460086061352	1000
0	9230	0.461012624352	1000
0	9250	0.461987473269	1000
0	9270	0.462952354241	1000
0	9290	0.463988377349	1000
0	9310	0.465047484298	1000
0	9330	0.46604827102	1000
0	9350	0.467007519497	1000
0	9370	0.46808471195	1000
0	9390	0.469055086063	1000
0	9410	0.470102764131	1000
0	9430	0.471113836383	1000
0	9450	0.472054139926	1000
0	9470	0.473063843745	1000
0	9490	0.47406777231	1000
0	9510	0.475037528842	1000
0	9530	0.475942452833	1000
0	9550	0.476872218692	1000
0	9570	0.477798589099	1000
0	9590	0.478840172591	1000
0	9610	0.479881987015	1000
0	9630	0.480904336699	1000
0	9650	0.481938718103	1000
0	9670	0.482928221277	1000
0	9690	0.483967436711	1000
0	9710	0.48494310194	1000
0	9730	0.48586310835	1000
0	9750	0.486955159707	1000
0	9770	0.487869646596	1000
0	9790	0.488773506717	1000
0	9810	0.489869421368	1000
0	9830	0.490799116985	1000
0	9850	0.491750857448	1000
0	9870	0.492693963211	1000
0	9890	0.493709945691	1000
0	9910	0.494805096029	1000
0	9930	0.49575969781	1000
0	9950	0.496853712825	1000
0	9970	0.497758812296	1000
0	9990	0.498836421037	1000
0	10010	0.499878142805	1000
0	10030	0.50083369754	1000
0	10050	0.501912670179	1000
0	10070	0.502817974689	1000
0	10090	0.503843102013	1000
0	10110	0.504809010554	1000
0	10130	0.505902434779	1000
0	10150	0.50683615006	1000
0	10170	0.507916446658	1000
0	10190	0.508882433789	1000
0	10210	0.509960280454	1000
0	10230	0.510962770786	1000
0	10250	0.511964896567	1000
0	10270	0.512942261997	1000
0	10290	0.513948279783	1000
0	10310	0.515037221279	1000
0	10330	0.516115793728	1000
0	10350	0.517151216608	1000
0	10370	0.518179022085	1000
0	10390	0.519188694352	1000
0	10410	0.520143230975	1000
0	10430	0.521072884703	1000
0	10450	0.522144145299	1000
0	10470	0.523171156658	1000
0	10490	0.524131085357	1000
0	10510	0.525123129299	1000
0	10530	0.526028034779	1000
0	10550	0.527039647799	1000
0	10570	0.528011878102	1000
0	10590	0.529012420011	1000
0	10610	0.529943145519	1000
0	10630	0.530928247046	1000
0	10650	0.532009481414	1000
0	10670	0.532911183732	1000
0	10690	0.534004956552	1000
0	10710	0.535043135297	1000
0	10730	0.535963018576	1000
0	10750	0.536920973751	1000
0	10770	0.537928788461	1000
0	10790	0.538973618031	1000
0	10810	0.539951391518	1000
0	10830	0.540896808312	1000
0	10850	0.541887780287	1000
0	10870	0.542982196788	1000
0	10890	0.544048960435	1000
0	10910	0.545131918568	1000
0	10930	0.546165375536	1000
0	10950	0.547153508755	1000
0	10970	0.548190527154	1000
0	10990	0.549220246816	1000
0	11010	0.550126066818	1000
0	11030	0.551209973105	1000