version 3
run UDP-0-20210915-13:33:20-36572
attr configname UDP
attr datetime 20210915-13:33:20
attr datetimef 20210915-133320
attr experiment UDP
attr inifile Red4Tcp.ini
attr iterationvars ""
attr iterationvarsd ""
attr iterationvarsf ""
attr measurement ""
attr network Red4Tcp
attr processid 36572
attr repetition 0
attr replication #0
attr resultdir results
attr runnumber 0
attr seedset 0
config debug-on-errors true
config image-path ../../inet/images
config **.eth[*].duplexMode true
config **.ppp[*].ppp.queue.typename DropTailQueue
config **.h*.numApps 1
config **.h*.app[0].typename TcpBasicClientApp
config **.h*.app[0].localPort 1000
config **.hA.app[0].connectAddress "\"hB\""
config **.hA.app[0].connectPort 1000
config **.hC.app[0].connectAddress "\"hB\""
config **.hC.app[0].connectPort 1000
config **.h*.app[0].thinkTime 0.01s
config network Red4Tcp
config sim-time-limit 2s

vector 0 Red4Tcp.hA.app[0] numActiveSessions:vector ETV
attr autoWarmupFilter false
attr interpolationmode sample-hold
attr source warmup(sum(connect))
attr title "number of active sessions, vector"
vector 1 Red4Tcp.hC.app[0] numActiveSessions:vector ETV
attr autoWarmupFilter false
attr interpolationmode sample-hold
attr source warmup(sum(connect))
attr title "number of active sessions, vector"
vector 2 Red4Tcp.hA.tcp.conn-4 tcpRcvQueueBytes:vector ETV
attr interpolationmode sample-hold
vector 3 Red4Tcp.hA.tcp.conn-4 rcvAdv:vector ETV
attr interpolationmode sample-hold
vector 4 Red4Tcp.hA.tcp.conn-4 rcvWnd:vector ETV
attr interpolationmode sample-hold
vector 5 Red4Tcp.hA.tcp.conn-4 sndAck:vector ETV
attr interpolationmode sample-hold
vector 6 Red4Tcp.hC.tcp.conn-6 tcpRcvQueueBytes:vector ETV
attr interpolationmode sample-hold
vector 7 Red4Tcp.hC.tcp.conn-6 rcvAdv:vector ETV
attr interpolationmode sample-hold
vector 8 Red4Tcp.hC.tcp.conn-6 rcvWnd:vector ETV
attr interpolationmode sample-hold
vector 9 Red4Tcp.hC.tcp.conn-6 sndAck:vector ETV
attr interpolationmode sample-hold
vector 10 Red4Tcp.hA.ipv4.arp arpRequestSent:vector(packetBytes) ETV
attr source arpRequestSent
attr title "ARP request sent, vector(packetBytes)"
vector 11 Red4Tcp.hC.ipv4.arp arpRequestSent:vector(packetBytes) ETV
attr source arpRequestSent
attr title "ARP request sent, vector(packetBytes)"
vector 12 Red4Tcp.hA.eth[0].encap encapPk:vector(packetBytes) ETV
attr interpolationmode none
attr source encapPk
attr title "packets encapsulated, vector(packetBytes)"
vector 13 Red4Tcp.hC.eth[0].encap encapPk:vector(packetBytes) ETV
attr interpolationmode none
attr source encapPk
attr title "packets encapsulated, vector(packetBytes)"
vector 14 Red4Tcp.hA.eth[0].mac packetReceivedFromUpper:vector(packetBytes) ETV
attr interpolationmode none
attr source packetReceivedFromUpper
attr title "packet bytes from higher layer, vector(packetBytes)"
vector 15 Red4Tcp.hA.eth[0].mac.queue packetPushed:vector(packetBytes) ETV
attr interpolationmode none
attr title "packet pushed, vector(packetBytes)"
vector 16 Red4Tcp.hA.eth[0].mac.queue queueLength:vector ETV
attr autoWarmupFilter false
attr interpolationmode sample-hold
attr source "warmup(count(packetPushed) - count(packetPulled) - count(packetRemoved) - count(packetDropped))"
attr title "queue length, vector"
attr type int
vector 17 Red4Tcp.hA.eth[0].mac.queue packetPulled:vector(packetBytes) ETV
attr interpolationmode none
attr title "packet pulled, vector(packetBytes)"
vector 18 Red4Tcp.hA.eth[0].mac.queue queueingTime:vector ETV
attr interpolationmode none
attr source queueingTime(packetPulled)
attr title "queueing times, vector"
attr unit s
vector 19 Red4Tcp.hC.eth[0].mac packetReceivedFromUpper:vector(packetBytes) ETV
attr interpolationmode none
attr source packetReceivedFromUpper
attr title "packet bytes from higher layer, vector(packetBytes)"
vector 20 Red4Tcp.hC.eth[0].mac.queue packetPushed:vector(packetBytes) ETV
attr interpolationmode none
attr title "packet pushed, vector(packetBytes)"
vector 21 Red4Tcp.hC.eth[0].mac.queue queueLength:vector ETV
attr autoWarmupFilter false
attr interpolationmode sample-hold
attr source "warmup(count(packetPushed) - count(packetPulled) - count(packetRemoved) - count(packetDropped))"
attr title "queue length, vector"
attr type int
vector 22 Red4Tcp.hC.eth[0].mac.queue packetPulled:vector(packetBytes) ETV
attr interpolationmode none
attr title "packet pulled, vector(packetBytes)"
vector 23 Red4Tcp.hC.eth[0].mac.queue queueingTime:vector ETV
attr interpolationmode none
attr source queueingTime(packetPulled)
attr title "queueing times, vector"
attr unit s
vector 24 Red4Tcp.hA.eth[0].mac txPk:vector(packetBytes) ETV
attr interpolationmode none
attr source packetSentToLower
attr title "packets transmitted, vector(packetBytes)"
vector 25 Red4Tcp.hC.eth[0].mac txPk:vector(packetBytes) ETV
attr interpolationmode none
attr source packetSentToLower
attr title "packets transmitted, vector(packetBytes)"
vector 26 Red4Tcp.switch1.eth[0].mac rxPkOk:vector(packetBytes) ETV
attr interpolationmode none
attr source rxPkOk
attr title "packets received OK, vector(packetBytes)"
vector 27 Red4Tcp.switch1.eth[0].mac passedUpPk:vector(packetBytes) ETV
attr interpolationmode none
attr source packetSentToUpper
attr title "packets passed to higher layer, vector(packetBytes)"
vector 28 Red4Tcp.switch2.eth[0].mac rxPkOk:vector(packetBytes) ETV
attr interpolationmode none
attr source rxPkOk
attr title "packets received OK, vector(packetBytes)"
vector 29 Red4Tcp.switch2.eth[0].mac passedUpPk:vector(packetBytes) ETV
attr interpolationmode none
attr source packetSentToUpper
attr title "packets passed to higher layer, vector(packetBytes)"
vector 30 Red4Tcp.switch1.eth[1].mac packetReceivedFromUpper:vector(packetBytes) ETV
attr interpolationmode none
attr source packetReceivedFromUpper
attr title "packet bytes from higher layer, vector(packetBytes)"
vector 31 Red4Tcp.switch1.eth[1].mac.queue packetPushed:vector(packetBytes) ETV
attr interpolationmode none
attr title "packet pushed, vector(packetBytes)"
vector 32 Red4Tcp.switch1.eth[1].mac.queue queueLength:vector ETV
attr autoWarmupFilter false
attr interpolationmode sample-hold
attr source "warmup(count(packetPushed) - count(packetPulled) - count(packetRemoved) - count(packetDropped))"
attr title "queue length, vector"
attr type int
vector 33 Red4Tcp.switch1.eth[1].mac.queue packetPulled:vector(packetBytes) ETV
attr interpolationmode none
attr title "packet pulled, vector(packetBytes)"
vector 34 Red4Tcp.switch1.eth[1].mac.queue queueingTime:vector ETV
attr interpolationmode none
attr source queueingTime(packetPulled)
attr title "queueing times, vector"
attr unit s
vector 35 Red4Tcp.switch1.eth[2].mac packetReceivedFromUpper:vector(packetBytes) ETV
attr interpolationmode none
attr source packetReceivedFromUpper
attr title "packet bytes from higher layer, vector(packetBytes)"
vector 36 Red4Tcp.switch1.eth[2].mac.queue packetPushed:vector(packetBytes) ETV
attr interpolationmode none
attr title "packet pushed, vector(packetBytes)"
vector 37 Red4Tcp.switch1.eth[2].mac.queue queueLength:vector ETV
attr autoWarmupFilter false
attr interpolationmode sample-hold
attr source "warmup(count(packetPushed) - count(packetPulled) - count(packetRemoved) - count(packetDropped))"
attr title "queue length, vector"
attr type int
vector 38 Red4Tcp.switch1.eth[2].mac.queue packetPulled:vector(packetBytes) ETV
attr interpolationmode none
attr title "packet pulled, vector(packetBytes)"
vector 39 Red4Tcp.switch1.eth[2].mac.queue queueingTime:vector ETV
attr interpolationmode none
attr source queueingTime(packetPulled)
attr title "queueing times, vector"
attr unit s
vector 40 Red4Tcp.switch2.eth[1].mac packetReceivedFromUpper:vector(packetBytes) ETV
attr interpolationmode none
attr source packetReceivedFromUpper
attr title "packet bytes from higher layer, vector(packetBytes)"
vector 41 Red4Tcp.switch2.eth[1].mac.queue packetPushed:vector(packetBytes) ETV
attr interpolationmode none
attr title "packet pushed, vector(packetBytes)"
vector 42 Red4Tcp.switch2.eth[1].mac.queue queueLength:vector ETV
attr autoWarmupFilter false
attr interpolationmode sample-hold
attr source "warmup(count(packetPushed) - count(packetPulled) - count(packetRemoved) - count(packetDropped))"
attr title "queue length, vector"
attr type int
vector 43 Red4Tcp.switch2.eth[1].mac.queue packetPulled:vector(packetBytes) ETV
attr interpolationmode none
attr title "packet pulled, vector(packetBytes)"
vector 44 Red4Tcp.switch2.eth[1].mac.queue queueingTime:vector ETV
attr interpolationmode none
attr source queueingTime(packetPulled)
attr title "queueing times, vector"
attr unit s
vector 45 Red4Tcp.switch2.eth[2].mac packetReceivedFromUpper:vector(packetBytes) ETV
attr interpolationmode none
attr source packetReceivedFromUpper
attr title "packet bytes from higher layer, vector(packetBytes)"
vector 46 Red4Tcp.switch2.eth[2].mac.queue packetPushed:vector(packetBytes) ETV
attr interpolationmode none
attr title "packet pushed, vector(packetBytes)"
vector 47 Red4Tcp.switch2.eth[2].mac.queue queueLength:vector ETV
attr autoWarmupFilter false
attr interpolationmode sample-hold
attr source "warmup(count(packetPushed) - count(packetPulled) - count(packetRemoved) - count(packetDropped))"
attr title "queue length, vector"
attr type int
vector 48 Red4Tcp.switch2.eth[2].mac.queue packetPulled:vector(packetBytes) ETV
attr interpolationmode none
attr title "packet pulled, vector(packetBytes)"
vector 49 Red4Tcp.switch2.eth[2].mac.queue queueingTime:vector ETV
attr interpolationmode none
attr source queueingTime(packetPulled)
attr title "queueing times, vector"
attr unit s
vector 50 Red4Tcp.switch1.eth[1].mac txPk:vector(packetBytes) ETV
attr interpolationmode none
attr source packetSentToLower
attr title "packets transmitted, vector(packetBytes)"
vector 51 Red4Tcp.switch1.eth[2].mac txPk:vector(packetBytes) ETV
attr interpolationmode none
attr source packetSentToLower
attr title "packets transmitted, vector(packetBytes)"
vector 52 Red4Tcp.switch2.eth[1].mac txPk:vector(packetBytes) ETV
attr interpolationmode none
attr source packetSentToLower
attr title "packets transmitted, vector(packetBytes)"
vector 53 Red4Tcp.switch2.eth[2].mac txPk:vector(packetBytes) ETV
attr interpolationmode none
attr source packetSentToLower
attr title "packets transmitted, vector(packetBytes)"
vector 54 Red4Tcp.hB.eth[0].mac rxPkOk:vector(packetBytes) ETV
attr interpolationmode none
attr source rxPkOk
attr title "packets received OK, vector(packetBytes)"
vector 55 Red4Tcp.hB.eth[0].mac passedUpPk:vector(packetBytes) ETV
attr interpolationmode none
attr source packetSentToUpper
attr title "packets passed to higher layer, vector(packetBytes)"
vector 56 Red4Tcp.switch2.eth[2].mac rxPkOk:vector(packetBytes) ETV
attr interpolationmode none
attr source rxPkOk
attr title "packets received OK, vector(packetBytes)"
vector 57 Red4Tcp.switch2.eth[2].mac passedUpPk:vector(packetBytes) ETV
attr interpolationmode none
attr source packetSentToUpper
attr title "packets passed to higher layer, vector(packetBytes)"
vector 58 Red4Tcp.hD.eth[0].mac rxPkOk:vector(packetBytes) ETV
attr interpolationmode none
attr source rxPkOk
attr title "packets received OK, vector(packetBytes)"
vector 59 Red4Tcp.hD.eth[0].mac passedUpPk:vector(packetBytes) ETV
attr interpolationmode none
attr source packetSentToUpper
attr title "packets passed to higher layer, vector(packetBytes)"
vector 60 Red4Tcp.switch1.eth[2].mac rxPkOk:vector(packetBytes) ETV
attr interpolationmode none
attr source rxPkOk
attr title "packets received OK, vector(packetBytes)"
vector 61 Red4Tcp.switch1.eth[2].mac passedUpPk:vector(packetBytes) ETV
attr interpolationmode none
attr source packetSentToUpper
attr title "packets passed to higher layer, vector(packetBytes)"
vector 62 Red4Tcp.hB.eth[0].encap decapPk:vector(packetBytes) ETV
attr interpolationmode none
attr source decapPk
attr title "packets decapsulated, vector(packetBytes)"
vector 63 Red4Tcp.hD.eth[0].encap decapPk:vector(packetBytes) ETV
attr interpolationmode none
attr source decapPk
attr title "packets decapsulated, vector(packetBytes)"
vector 64 Red4Tcp.hB.ipv4.arp arpReplySent:vector(packetBytes) ETV
attr source arpReplySent
attr title "ARP replies sent, vector(packetBytes)"
vector 65 Red4Tcp.switch2.eth[0].mac packetReceivedFromUpper:vector(packetBytes) ETV
attr interpolationmode none
attr source packetReceivedFromUpper
attr title "packet bytes from higher layer, vector(packetBytes)"
vector 66 Red4Tcp.switch2.eth[0].mac.queue packetPushed:vector(packetBytes) ETV
attr interpolationmode none
attr title "packet pushed, vector(packetBytes)"
vector 67 Red4Tcp.switch2.eth[0].mac.queue queueLength:vector ETV
attr autoWarmupFilter false
attr interpolationmode sample-hold
attr source "warmup(count(packetPushed) - count(packetPulled) - count(packetRemoved) - count(packetDropped))"
attr title "queue length, vector"
attr type int
vector 68 Red4Tcp.switch2.eth[0].mac.queue packetPulled:vector(packetBytes) ETV
attr interpolationmode none
attr title "packet pulled, vector(packetBytes)"
vector 69 Red4Tcp.switch2.eth[0].mac.queue queueingTime:vector ETV
attr interpolationmode none
attr source queueingTime(packetPulled)
attr title "queueing times, vector"
attr unit s
vector 70 Red4Tcp.switch1.eth[0].mac packetReceivedFromUpper:vector(packetBytes) ETV
attr interpolationmode none
attr source packetReceivedFromUpper
attr title "packet bytes from higher layer, vector(packetBytes)"
vector 71 Red4Tcp.switch1.eth[0].mac.queue packetPushed:vector(packetBytes) ETV
attr interpolationmode none
attr title "packet pushed, vector(packetBytes)"
vector 72 Red4Tcp.switch1.eth[0].mac.queue queueLength:vector ETV
attr autoWarmupFilter false
attr interpolationmode sample-hold
attr source "warmup(count(packetPushed) - count(packetPulled) - count(packetRemoved) - count(packetDropped))"
attr title "queue length, vector"
attr type int
vector 73 Red4Tcp.switch1.eth[0].mac.queue packetPulled:vector(packetBytes) ETV
attr interpolationmode none
attr title "packet pulled, vector(packetBytes)"
vector 74 Red4Tcp.switch1.eth[0].mac.queue queueingTime:vector ETV
attr interpolationmode none
attr source queueingTime(packetPulled)
attr title "queueing times, vector"
attr unit s
vector 75 Red4Tcp.hB.eth[0].encap encapPk:vector(packetBytes) ETV
attr interpolationmode none
attr source encapPk
attr title "packets encapsulated, vector(packetBytes)"
vector 76 Red4Tcp.hB.eth[0].mac packetReceivedFromUpper:vector(packetBytes) ETV
attr interpolationmode none
attr source packetReceivedFromUpper
attr title "packet bytes from higher layer, vector(packetBytes)"
vector 77 Red4Tcp.hB.eth[0].mac.queue packetPushed:vector(packetBytes) ETV
attr interpolationmode none
attr title "packet pushed, vector(packetBytes)"
vector 78 Red4Tcp.hB.eth[0].mac.queue queueLength:vector ETV
attr autoWarmupFilter false
attr interpolationmode sample-hold
attr source "warmup(count(packetPushed) - count(packetPulled) - count(packetRemoved) - count(packetDropped))"
attr title "queue length, vector"
attr type int
vector 79 Red4Tcp.hB.eth[0].mac.queue packetPulled:vector(packetBytes) ETV
attr interpolationmode none
attr title "packet pulled, vector(packetBytes)"
vector 80 Red4Tcp.hB.eth[0].mac.queue queueingTime:vector ETV
attr interpolationmode none
attr source queueingTime(packetPulled)
attr title "queueing times, vector"
attr unit s
vector 81 Red4Tcp.switch2.eth[0].mac txPk:vector(packetBytes) ETV
attr interpolationmode none
attr source packetSentToLower
attr title "packets transmitted, vector(packetBytes)"
vector 82 Red4Tcp.switch1.eth[0].mac txPk:vector(packetBytes) ETV
attr interpolationmode none
attr source packetSentToLower
attr title "packets transmitted, vector(packetBytes)"
vector 83 Red4Tcp.hB.eth[0].mac txPk:vector(packetBytes) ETV
attr interpolationmode none
attr source packetSentToLower
attr title "packets transmitted, vector(packetBytes)"
vector 84 Red4Tcp.hC.eth[0].mac rxPkOk:vector(packetBytes) ETV
attr interpolationmode none
attr source rxPkOk
attr title "packets received OK, vector(packetBytes)"
vector 85 Red4Tcp.hC.eth[0].mac passedUpPk:vector(packetBytes) ETV
attr interpolationmode none
attr source packetSentToUpper
attr title "packets passed to higher layer, vector(packetBytes)"
vector 86 Red4Tcp.hA.eth[0].mac rxPkOk:vector(packetBytes) ETV
attr interpolationmode none
attr source rxPkOk
attr title "packets received OK, vector(packetBytes)"
vector 87 Red4Tcp.hA.eth[0].mac passedUpPk:vector(packetBytes) ETV
attr interpolationmode none
attr source packetSentToUpper
attr title "packets passed to higher layer, vector(packetBytes)"
vector 88 Red4Tcp.switch1.eth[1].mac rxPkOk:vector(packetBytes) ETV
attr interpolationmode none
attr source rxPkOk
attr title "packets received OK, vector(packetBytes)"
vector 89 Red4Tcp.switch1.eth[1].mac passedUpPk:vector(packetBytes) ETV
attr interpolationmode none
attr source packetSentToUpper
attr title "packets passed to higher layer, vector(packetBytes)"
vector 90 Red4Tcp.hC.eth[0].encap decapPk:vector(packetBytes) ETV
attr interpolationmode none
attr source decapPk
attr title "packets decapsulated, vector(packetBytes)"
vector 91 Red4Tcp.hA.eth[0].encap decapPk:vector(packetBytes) ETV
attr interpolationmode none
attr source decapPk
attr title "packets decapsulated, vector(packetBytes)"
vector 92 Red4Tcp.hA.tcp.conn-4 rcvSeq:vector ETV
attr interpolationmode sample-hold
vector 93 Red4Tcp.hA.tcp.conn-4 rcvAck:vector ETV
attr interpolationmode sample-hold
vector 94 Red4Tcp.hA.tcp.conn-4 tcpRcvPayloadBytes:vector ETV
attr interpolationmode sample-hold
94	134	1.0000081152	0
2	5	1	0
93	134	1.0000081152	250001
92	134	1.0000081152	0
5	5	1	0
3	5	1	7504
4	5	1	7504
vector 95 Red4Tcp.hA.tcp.conn-8 tcpRcvQueueBytes:vector ETV
attr interpolationmode sample-hold
vector 96 Red4Tcp.hA.tcp.conn-8 rcvAdv:vector ETV
attr interpolationmode sample-hold
vector 97 Red4Tcp.hA.tcp.conn-8 rcvWnd:vector ETV
attr interpolationmode sample-hold
vector 98 Red4Tcp.hA.tcp.conn-8 sndAck:vector ETV
attr interpolationmode sample-hold
vector 99 Red4Tcp.hC.tcp.conn-6 rcvSeq:vector ETV
attr interpolationmode sample-hold
vector 100 Red4Tcp.hC.tcp.conn-6 rcvAck:vector ETV
attr interpolationmode sample-hold
vector 101 Red4Tcp.hC.tcp.conn-6 tcpRcvPayloadBytes:vector ETV
attr interpolationmode sample-hold
101	190	1.0000121728	0
6	6	1	0
100	190	1.0000121728	250001
99	190	1.0000121728	0
9	6	1	0
7	6	1	7504
8	6	1	7504
vector 102 Red4Tcp.hA.tcp.conn-8 rcvSeq:vector ETV
attr interpolationmode sample-hold
vector 103 Red4Tcp.hA.tcp.conn-8 rcvAck:vector ETV
attr interpolationmode sample-hold
vector 104 Red4Tcp.hA.tcp.conn-8 tcpRcvPayloadBytes:vector ETV
attr interpolationmode sample-hold
104	191	1.0000121728	0
95	138	1.0000081152	0
103	191	1.0000121728	250003
102	191	1.0000121728	0
98	138	1.0000081152	0
96	138	1.0000081152	7504
97	138	1.0000081152	7504
vector 105 Red4Tcp.hC.tcp.conn-9 tcpRcvQueueBytes:vector ETV
attr interpolationmode sample-hold
vector 106 Red4Tcp.hC.tcp.conn-9 rcvAdv:vector ETV
attr interpolationmode sample-hold
vector 107 Red4Tcp.hC.tcp.conn-9 rcvWnd:vector ETV
attr interpolationmode sample-hold
vector 108 Red4Tcp.hC.tcp.conn-9 sndAck:vector ETV
attr interpolationmode sample-hold
vector 109 Red4Tcp.hA.tcp.conn-10 tcpRcvQueueBytes:vector ETV
attr interpolationmode sample-hold
vector 110 Red4Tcp.hA.tcp.conn-10 rcvAdv:vector ETV
attr interpolationmode sample-hold
vector 111 Red4Tcp.hA.tcp.conn-10 rcvWnd:vector ETV
attr interpolationmode sample-hold
vector 112 Red4Tcp.hA.tcp.conn-10 sndAck:vector ETV
attr interpolationmode sample-hold
vector 113 Red4Tcp.hA.tcp.conn-10 rcvSeq:vector ETV
attr interpolationmode sample-hold
vector 114 Red4Tcp.hA.tcp.conn-10 rcvAck:vector ETV
attr interpolationmode sample-hold
vector 115 Red4Tcp.hA.tcp.conn-10 tcpRcvPayloadBytes:vector ETV
attr interpolationmode sample-hold
115	254	1.0000162304	0
109	199	1.0000121728	0
114	254	1.0000162304	250004
113	254	1.0000162304	0
112	199	1.0000121728	0
110	199	1.0000121728	7504
111	199	1.0000121728	7504
vector 116 Red4Tcp.hA.tcp.conn-11 tcpRcvQueueBytes:vector ETV
attr interpolationmode sample-hold
vector 117 Red4Tcp.hA.tcp.conn-11 rcvAdv:vector ETV
attr interpolationmode sample-hold
vector 118 Red4Tcp.hA.tcp.conn-11 rcvWnd:vector ETV
attr interpolationmode sample-hold
vector 119 Red4Tcp.hA.tcp.conn-11 sndAck:vector ETV
attr interpolationmode sample-hold
vector 120 Red4Tcp.hC.tcp.conn-9 rcvSeq:vector ETV
attr interpolationmode sample-hold
vector 121 Red4Tcp.hC.tcp.conn-9 rcvAck:vector ETV
attr interpolationmode sample-hold
vector 122 Red4Tcp.hC.tcp.conn-9 tcpRcvPayloadBytes:vector ETV
attr interpolationmode sample-hold
122	282	1.0000182592	0
105	198	1.0000121728	0
121	282	1.0000182592	250004
120	282	1.0000182592	0
108	198	1.0000121728	0
106	198	1.0000121728	7504
107	198	1.0000121728	7504
vector 123 Red4Tcp.hC.tcp.conn-12 tcpRcvQueueBytes:vector ETV
attr interpolationmode sample-hold
vector 124 Red4Tcp.hC.tcp.conn-12 rcvAdv:vector ETV
attr interpolationmode sample-hold
vector 125 Red4Tcp.hC.tcp.conn-12 rcvWnd:vector ETV
attr interpolationmode sample-hold
vector 126 Red4Tcp.hC.tcp.conn-12 sndAck:vector ETV
attr interpolationmode sample-hold
vector 127 Red4Tcp.hA.tcp.conn-11 rcvSeq:vector ETV
attr interpolationmode sample-hold
vector 128 Red4Tcp.hA.tcp.conn-11 rcvAck:vector ETV
attr interpolationmode sample-hold
vector 129 Red4Tcp.hA.tcp.conn-11 tcpRcvPayloadBytes:vector ETV
attr interpolationmode sample-hold
129	314	1.000020288	0
116	258	1.0000162304	0
128	314	1.000020288	250005
127	314	1.000020288	0
119	258	1.0000162304	0
117	258	1.0000162304	7504
118	258	1.0000162304	7504
vector 130 Red4Tcp.hA.tcp.conn-13 tcpRcvQueueBytes:vector ETV
attr interpolationmode sample-hold
vector 131 Red4Tcp.hA.tcp.conn-13 rcvAdv:vector ETV
attr interpolationmode sample-hold
vector 132 Red4Tcp.hA.tcp.conn-13 rcvWnd:vector ETV
attr interpolationmode sample-hold
vector 133 Red4Tcp.hA.tcp.conn-13 sndAck:vector ETV
attr interpolationmode sample-hold
vector 134 Red4Tcp.hC.tcp.conn-12 rcvSeq:vector ETV
attr interpolationmode sample-hold
vector 135 Red4Tcp.hC.tcp.conn-12 rcvAck:vector ETV
attr interpolationmode sample-hold
vector 136 Red4Tcp.hC.tcp.conn-12 tcpRcvPayloadBytes:vector ETV
attr interpolationmode sample-hold
136	370	1.0000243456	0
123	289	1.0000182592	0
135	370	1.0000243456	250005
134	370	1.0000243456	0
126	289	1.0000182592	0
124	289	1.0000182592	7504
125	289	1.0000182592	7504
vector 137 Red4Tcp.hA.tcp.conn-13 rcvSeq:vector ETV
attr interpolationmode sample-hold
vector 138 Red4Tcp.hA.tcp.conn-13 rcvAck:vector ETV
attr interpolationmode sample-hold
vector 139 Red4Tcp.hA.tcp.conn-13 tcpRcvPayloadBytes:vector ETV
attr interpolationmode sample-hold
139	371	1.0000243456	0
130	318	1.000020288	0
138	371	1.0000243456	250006
137	371	1.0000243456	0
133	318	1.000020288	0
131	318	1.000020288	7504
132	318	1.000020288	7504
vector 140 Red4Tcp.hC.tcp.conn-14 tcpRcvQueueBytes:vector ETV
attr interpolationmode sample-hold
vector 141 Red4Tcp.hC.tcp.conn-14 rcvAdv:vector ETV
attr interpolationmode sample-hold
vector 142 Red4Tcp.hC.tcp.conn-14 rcvWnd:vector ETV
attr interpolationmode sample-hold
vector 143 Red4Tcp.hC.tcp.conn-14 sndAck:vector ETV
attr interpolationmode sample-hold
vector 144 Red4Tcp.hA.tcp.conn-15 tcpRcvQueueBytes:vector ETV
attr interpolationmode sample-hold
vector 145 Red4Tcp.hA.tcp.conn-15 rcvAdv:vector ETV
attr interpolationmode sample-hold
vector 146 Red4Tcp.hA.tcp.conn-15 rcvWnd:vector ETV
attr interpolationmode sample-hold
vector 147 Red4Tcp.hA.tcp.conn-15 sndAck:vector ETV
attr interpolationmode sample-hold
vector 148 Red4Tcp.hA.tcp.conn-15 rcvSeq:vector ETV
attr interpolationmode sample-hold
vector 149 Red4Tcp.hA.tcp.conn-15 rcvAck:vector ETV
attr interpolationmode sample-hold
vector 150 Red4Tcp.hA.tcp.conn-15 tcpRcvPayloadBytes:vector ETV
attr interpolationmode sample-hold
150	434	1.0000284032	0
144	379	1.0000243456	0
149	434	1.0000284032	250007
148	434	1.0000284032	0
147	379	1.0000243456	0
145	379	1.0000243456	7504
146	379	1.0000243456	7504
vector 151 Red4Tcp.hA.tcp.conn-16 tcpRcvQueueBytes:vector ETV
attr interpolationmode sample-hold
vector 152 Red4Tcp.hA.tcp.conn-16 rcvAdv:vector ETV
attr interpolationmode sample-hold
vector 153 Red4Tcp.hA.tcp.conn-16 rcvWnd:vector ETV
attr interpolationmode sample-hold
vector 154 Red4Tcp.hA.tcp.conn-16 sndAck:vector ETV
attr interpolationmode sample-hold
vector 155 Red4Tcp.hC.tcp.conn-14 rcvSeq:vector ETV
attr interpolationmode sample-hold
vector 156 Red4Tcp.hC.tcp.conn-14 rcvAck:vector ETV
attr interpolationmode sample-hold
vector 157 Red4Tcp.hC.tcp.conn-14 tcpRcvPayloadBytes:vector ETV
attr interpolationmode sample-hold
157	462	1.000030432	0
140	378	1.0000243456	0
156	462	1.000030432	250007
155	462	1.000030432	0
143	378	1.0000243456	0
141	378	1.0000243456	7504
142	378	1.0000243456	7504
vector 158 Red4Tcp.hC.tcp.conn-17 tcpRcvQueueBytes:vector ETV
attr interpolationmode sample-hold
vector 159 Red4Tcp.hC.tcp.conn-17 rcvAdv:vector ETV
attr interpolationmode sample-hold
vector 160 Red4Tcp.hC.tcp.conn-17 rcvWnd:vector ETV
attr interpolationmode sample-hold
vector 161 Red4Tcp.hC.tcp.conn-17 sndAck:vector ETV
attr interpolationmode sample-hold
vector 162 Red4Tcp.hA.tcp.conn-16 rcvSeq:vector ETV
attr interpolationmode sample-hold
vector 163 Red4Tcp.hA.tcp.conn-16 rcvAck:vector ETV
attr interpolationmode sample-hold
vector 164 Red4Tcp.hA.tcp.conn-16 tcpRcvPayloadBytes:vector ETV
attr interpolationmode sample-hold
164	494	1.0000324608	0
151	438	1.0000284032	0
163	494	1.0000324608	250008
162	494	1.0000324608	0
154	438	1.0000284032	0
152	438	1.0000284032	7504
153	438	1.0000284032	7504
vector 165 Red4Tcp.hA.tcp.conn-18 tcpRcvQueueBytes:vector ETV
attr interpolationmode sample-hold
vector 166 Red4Tcp.hA.tcp.conn-18 rcvAdv:vector ETV
attr interpolationmode sample-hold
vector 167 Red4Tcp.hA.tcp.conn-18 rcvWnd:vector ETV
attr interpolationmode sample-hold
vector 168 Red4Tcp.hA.tcp.conn-18 sndAck:vector ETV
attr interpolationmode sample-hold
0	1	1	1
0	137	1.0000081152	2
0	197	1.0000121728	3
0	257	1.0000162304	4
0	317	1.000020288	5
0	377	1.0000243456	6
0	437	1.0000284032	7
0	497	1.0000324608	8
1	3	1	1
1	196	1.0000121728	2
1	287	1.0000182592	3
1	376	1.0000243456	4
1	467	1.000030432	5
10	7	1	28
11	8	1	28
12	9	1	28
12	86	1.0000040576	44
12	140	1.0000081152	44
12	203	1.0000121728	44
12	260	1.0000162304	44
12	320	1.000020288	44
12	383	1.0000243456	44
12	440	1.0000284032	44
12	500	1.0000324608	44
13	10	1	28
13	108	1.0000060864	44
13	202	1.0000121728	44
13	292	1.0000182592	44
13	382	1.0000243456	44
13	472	1.000030432	44
14	11	1	46
14	87	1.0000040576	62
14	141	1.0000081152	62
14	205	1.0000121728	62
14	261	1.0000162304	62
14	321	1.000020288	62
14	385	1.0000243456	62
14	441	1.0000284032	62
14	501	1.0000324608	62
15	11	1	46
15	87	1.0000040576	62
15	141	1.0000081152	62
15	205	1.0000121728	62
15	261	1.0000162304	62
15	321	1.000020288	62
15	385	1.0000243456	62
15	441	1.0000284032	62
15	501	1.0000324608	62
16	11	1	1
16	11	1	0
16	87	1.0000040576	1
16	87	1.0000040576	0
16	141	1.0000081152	1
16	141	1.0000081152	0
16	205	1.0000121728	1
16	205	1.0000121728	0
16	261	1.0000162304	1
16	261	1.0000162304	0
16	321	1.000020288	1
16	321	1.000020288	0
16	385	1.0000243456	1
16	385	1.0000243456	0
16	441	1.0000284032	1
16	441	1.0000284032	0
16	501	1.0000324608	1
16	501	1.0000324608	0
17	11	1	46
17	87	1.0000040576	62
17	141	1.0000081152	62
17	205	1.0000121728	62
17	261	1.0000162304	62
17	321	1.000020288	62
17	385	1.0000243456	62
17	441	1.0000284032	62
17	501	1.0000324608	62
18	11	1	0
18	87	1.0000040576	0
18	141	1.0000081152	0
18	205	1.0000121728	0
18	261	1.0000162304	0
18	321	1.000020288	0
18	385	1.0000243456	0
18	441	1.0000284032	0
18	501	1.0000324608	0
19	12	1	46
19	110	1.0000060864	62
19	204	1.0000121728	62
19	293	1.0000182592	62
19	384	1.0000243456	62
19	473	1.000030432	62
20	12	1	46
20	110	1.0000060864	62
20	204	1.0000121728	62
20	293	1.0000182592	62
20	384	1.0000243456	62
20	473	1.000030432	62
21	12	1	1
21	12	1	0
21	110	1.0000060864	1
21	110	1.0000060864	0
21	204	1.0000121728	1
21	204	1.0000121728	0
21	293	1.0000182592	1
21	293	1.0000182592	0
21	384	1.0000243456	1
21	384	1.0000243456	0
21	473	1.000030432	1
21	473	1.000030432	0
22	12	1	46
22	110	1.0000060864	62
22	204	1.0000121728	62
22	293	1.0000182592	62
22	384	1.0000243456	62
22	473	1.000030432	62
23	12	1	0
23	110	1.0000060864	0
23	204	1.0000121728	0
23	293	1.0000182592	0
23	384	1.0000243456	0
23	473	1.000030432	0
24	13	1.0000000144	64
24	89	1.000004072	64
24	143	1.0000081296	64
24	207	1.0000121872	64
24	263	1.0000162448	64
24	323	1.0000203024	64
24	387	1.00002436	64
24	443	1.0000284176	64
24	503	1.0000324752	64
25	14	1.0000000144	64
25	114	1.0000061008	64
25	206	1.0000121872	64
25	295	1.0000182736	64
25	386	1.00002436	64
25	475	1.0000304464	64
26	17	1.0000010144	64
26	93	1.000005072	64
26	147	1.0000091296	64
26	211	1.0000131872	64
26	267	1.0000172448	64
26	327	1.0000213024	64
26	391	1.00002536	64
26	447	1.0000294176	64
26	507	1.0000334752	64
27	17	1.0000010144	64
27	93	1.000005072	64
27	147	1.0000091296	64
27	211	1.0000131872	64
27	267	1.0000172448	64
27	327	1.0000213024	64
27	391	1.00002536	64
27	447	1.0000294176	64
27	507	1.0000334752	64
28	18	1.0000010144	64
28	118	1.0000071008	64
28	210	1.0000131872	64
28	299	1.0000192736	64
28	390	1.00002536	64
28	479	1.0000314464	64
29	18	1.0000010144	64
29	118	1.0000071008	64
29	210	1.0000131872	64
29	299	1.0000192736	64
29	390	1.00002536	64
29	479	1.0000314464	64
30	21	1.0000010144	64
30	46	1.0000020288	64
30	97	1.000005072	64
30	132	1.0000081152	64
30	151	1.0000091296	64
30	215	1.0000131872	64
30	224	1.0000142016	64
30	271	1.0000172448	64
30	313	1.000020288	64
30	331	1.0000213024	64
30	395	1.00002536	64
30	404	1.0000263744	64
30	451	1.0000294176	64
30	493	1.0000324608	64
30	511	1.0000334752	64
31	21	1.0000010144	64
31	46	1.0000020288	64
31	97	1.000005072	64
31	132	1.0000081152	64
31	151	1.0000091296	64
31	215	1.0000131872	64
31	224	1.0000142016	64
31	271	1.0000172448	64
31	313	1.000020288	64
31	331	1.0000213024	64