file 1575979 1631705740                                         
version 3
run UDP-0-20210915-13:33:20-36572
attr configname UDP
attr datetime 20210915-13:33:20
attr datetimef 20210915-133320
attr experiment UDP
attr inifile Red4Tcp.ini
attr iterationvars ""
attr iterationvarsd ""
attr iterationvarsf ""
attr measurement ""
attr network Red4Tcp
attr processid 36572
attr repetition 0
attr replication #0
attr resultdir results
attr runnumber 0
attr seedset 0
config debug-on-errors true
config image-path ../../inet/images
config **.eth[*].duplexMode true
config **.ppp[*].ppp.queue.typename DropTailQueue
config **.h*.numApps 1
config **.h*.app[0].typename TcpBasicClientApp
config **.h*.app[0].localPort 1000
config **.hA.app[0].connectAddress "\"hB\""
config **.hA.app[0].connectPort 1000
config **.hC.app[0].connectAddress "\"hB\""
config **.hC.app[0].connectPort 1000
config **.h*.app[0].thinkTime 0.01s
config network Red4Tcp
config sim-time-limit 2s

vector 0 Red4Tcp.hA.app[0] numActiveSessions:vector ETV
attr autoWarmupFilter false
attr interpolationmode sample-hold
attr source warmup(sum(connect))
attr title "number of active sessions, vector"
vector 1 Red4Tcp.hC.app[0] numActiveSessions:vector ETV
attr autoWarmupFilter false
attr interpolationmode sample-hold
attr source warmup(sum(connect))
attr title "number of active sessions, vector"
vector 2 Red4Tcp.hA.tcp.conn-4 tcpRcvQueueBytes:vector ETV
attr interpolationmode sample-hold
vector 3 Red4Tcp.hA.tcp.conn-4 rcvAdv:vector ETV
attr interpolationmode sample-hold
vector 4 Red4Tcp.hA.tcp.conn-4 rcvWnd:vector ETV
attr interpolationmode sample-hold
vector 5 Red4Tcp.hA.tcp.conn-4 sndAck:vector ETV
attr interpolationmode sample-hold
vector 6 Red4Tcp.hC.tcp.conn-6 tcpRcvQueueBytes:vector ETV
attr interpolationmode sample-hold
vector 7 Red4Tcp.hC.tcp.conn-6 rcvAdv:vector ETV
attr interpolationmode sample-hold
vector 8 Red4Tcp.hC.tcp.conn-6 rcvWnd:vector ETV
attr interpolationmode sample-hold
vector 9 Red4Tcp.hC.tcp.conn-6 sndAck:vector ETV
attr interpolationmode sample-hold
vector 10 Red4Tcp.hA.ipv4.arp arpRequestSent:vector(packetBytes) ETV
attr source arpRequestSent
attr title "ARP request sent, vector(packetBytes)"
vector 11 Red4Tcp.hC.ipv4.arp arpRequestSent:vector(packetBytes) ETV
attr source arpRequestSent
attr title "ARP request sent, vector(packetBytes)"
vector 12 Red4Tcp.hA.eth[0].encap encapPk:vector(packetBytes) ETV
attr interpolationmode none
attr source encapPk
attr title "packets encapsulated, vector(packetBytes)"
vector 13 Red4Tcp.hC.eth[0].encap encapPk:vector(packetBytes) ETV
attr interpolationmode none
attr source encapPk
attr title "packets encapsulated, vector(packetBytes)"
vector 14 Red4Tcp.hA.eth[0].mac packetReceivedFromUpper:vector(packetBytes) ETV
attr interpolationmode none
attr source packetReceivedFromUpper
attr title "packet bytes from higher layer, vector(packetBytes)"
vector 15 Red4Tcp.hA.eth[0].mac.queue packetPushed:vector(packetBytes) ETV
attr interpolationmode none
attr title "packet pushed, vector(packetBytes)"
vector 16 Red4Tcp.hA.eth[0].mac.queue queueLength:vector ETV
attr autoWarmupFilter false
attr interpolationmode sample-hold
attr source "warmup(count(packetPushed) - count(packetPulled) - count(packetRemoved) - count(packetDropped))"
attr title "queue length, vector"
attr type int
vector 17 Red4Tcp.hA.eth[0].mac.queue packetPulled:vector(packetBytes) ETV
attr interpolationmode none
attr title "packet pulled, vector(packetBytes)"
vector 18 Red4Tcp.hA.eth[0].mac.queue queueingTime:vector ETV
attr interpolationmode none
attr source queueingTime(packetPulled)
attr title "queueing times, vector"
attr unit s
vector 19 Red4Tcp.hC.eth[0].mac packetReceivedFromUpper:vector(packetBytes) ETV
attr interpolationmode none
attr source packetReceivedFromUpper
attr title "packet bytes from higher layer, vector(packetBytes)"
vector 20 Red4Tcp.hC.eth[0].mac.queue packetPushed:vector(packetBytes) ETV
attr interpolationmode none
attr title "packet pushed, vector(packetBytes)"
vector 21 Red4Tcp.hC.eth[0].mac.queue queueLength:vector ETV
attr autoWarmupFilter false
attr interpolationmode sample-hold
attr source "warmup(count(packetPushed) - count(packetPulled) - count(packetRemoved) - count(packetDropped))"
attr title "queue length, vector"
attr type int
vector 22 Red4Tcp.hC.eth[0].mac.queue packetPulled:vector(packetBytes) ETV
attr interpolationmode none
attr title "packet pulled, vector(packetBytes)"
vector 23 Red4Tcp.hC.eth[0].mac.queue queueingTime:vector ETV
attr interpolationmode none
attr source queueingTime(packetPulled)
attr title "queueing times, vector"
attr unit s
vector 24 Red4Tcp.hA.eth[0].mac txPk:vector(packetBytes) ETV
attr interpolationmode none
attr source packetSentToLower
attr title "packets transmitted, vector(packetBytes)"
vector 25 Red4Tcp.hC.eth[0].mac txPk:vector(packetBytes) ETV
attr interpolationmode none
attr source packetSentToLower
attr title "packets transmitted, vector(packetBytes)"
vector 26 Red4Tcp.switch1.eth[0].mac rxPkOk:vector(packetBytes) ETV
attr interpolationmode none
attr source rxPkOk
attr title "packets received OK, vector(packetBytes)"
vector 27 Red4Tcp.switch1.eth[0].mac passedUpPk:vector(packetBytes) ETV
attr interpolationmode none
attr source packetSentToUpper
attr title "packets passed to higher layer, vector(packetBytes)"
vector 28 Red4Tcp.switch2.eth[0].mac rxPkOk:vector(packetBytes) ETV
attr interpolationmode none
attr source rxPkOk
attr title "packets received OK, vector(packetBytes)"
vector 29 Red4Tcp.switch2.eth[0].mac passedUpPk:vector(packetBytes) ETV
attr interpolationmode none
attr source packetSentToUpper
attr title "packets passed to higher layer, vector(packetBytes)"
vector 30 Red4Tcp.switch1.eth[1].mac packetReceivedFromUpper:vector(packetBytes) ETV
attr interpolationmode none
attr source packetReceivedFromUpper
attr title "packet bytes from higher layer, vector(packetBytes)"
vector 31 Red4Tcp.switch1.eth[1].mac.queue packetPushed:vector(packetBytes) ETV
attr interpolationmode none
attr title "packet pushed, vector(packetBytes)"
vector 32 Red4Tcp.switch1.eth[1].mac.queue queueLength:vector ETV
attr autoWarmupFilter false
attr interpolationmode sample-hold
attr source "warmup(count(packetPushed) - count(packetPulled) - count(packetRemoved) - count(packetDropped))"
attr title "queue length, vector"
attr type int
vector 33 Red4Tcp.switch1.eth[1].mac.queue packetPulled:vector(packetBytes) ETV
attr interpolationmode none
attr title "packet pulled, vector(packetBytes)"
vector 34 Red4Tcp.switch1.eth[1].mac.queue queueingTime:vector ETV
attr interpolationmode none
attr source queueingTime(packetPulled)
attr title "queueing times, vector"
attr unit s
vector 35 Red4Tcp.switch1.eth[2].mac packetReceivedFromUpper:vector(packetBytes) ETV
attr interpolationmode none
attr source packetReceivedFromUpper
attr title "packet bytes from higher layer, vector(packetBytes)"
vector 36 Red4Tcp.switch1.eth[2].mac.queue packetPushed:vector(packetBytes) ETV
attr interpolationmode none
attr title "packet pushed, vector(packetBytes)"
vector 37 Red4Tcp.switch1.eth[2].mac.queue queueLength:vector ETV
attr autoWarmupFilter false
attr interpolationmode sample-hold
attr source "warmup(count(packetPushed) - count(packetPulled) - count(packetRemoved) - count(packetDropped))"
attr title "queue length, vector"
attr type int
vector 38 Red4Tcp.switch1.eth[2].mac.queue packetPulled:vector(packetBytes) ETV
attr interpolationmode none
attr title "packet pulled, vector(packetBytes)"
vector 39 Red4Tcp.switch1.eth[2].mac.queue queueingTime:vector ETV
attr interpolationmode none
attr source queueingTime(packetPulled)
attr title "queueing times, vector"
attr unit s
vector 40 Red4Tcp.switch2.eth[1].mac packetReceivedFromUpper:vector(packetBytes) ETV
attr interpolationmode none
attr source packetReceivedFromUpper
attr title "packet bytes from higher layer, vector(packetBytes)"
vector 41 Red4Tcp.switch2.eth[1].mac.queue packetPushed:vector(packetBytes) ETV
attr interpolationmode none
attr title "packet pushed, vector(packetBytes)"
vector 42 Red4Tcp.switch2.eth[1].mac.queue queueLength:vector ETV
attr autoWarmupFilter false
attr interpolationmode sample-hold
attr source "warmup(count(packetPushed) - count(packetPulled) - count(packetRemoved) - count(packetDropped))"
attr title "queue length, vector"
attr type int
vector 43 Red4Tcp.switch2.eth[1].mac.queue packetPulled:vector(packetBytes) ETV
attr interpolationmode none
attr title "packet pulled, vector(packetBytes)"
vector 44 Red4Tcp.switch2.eth[1].mac.queue queueingTime:vector ETV
attr interpolationmode none
attr source queueingTime(packetPulled)
attr title "queueing times, vector"
attr unit s
vector 45 Red4Tcp.switch2.eth[2].mac packetReceivedFromUpper:vector(packetBytes) ETV
attr interpolationmode none
attr source packetReceivedFromUpper
attr title "packet bytes from higher layer, vector(packetBytes)"
vector 46 Red4Tcp.switch2.eth[2].mac.queue packetPushed:vector(packetBytes) ETV
attr interpolationmode none
attr title "packet pushed, vector(packetBytes)"
vector 47 Red4Tcp.switch2.eth[2].mac.queue queueLength:vector ETV
attr autoWarmupFilter false
attr interpolationmode sample-hold
attr source "warmup(count(packetPushed) - count(packetPulled) - count(packetRemoved) - count(packetDropped))"
attr title "queue length, vector"
attr type int
vector 48 Red4Tcp.switch2.eth[2].mac.queue packetPulled:vector(packetBytes) ETV
attr interpolationmode none
attr title "packet pulled, vector(packetBytes)"
vector 49 Red4Tcp.switch2.eth[2].mac.queue queueingTime:vector ETV
attr interpolationmode none
attr source queueingTime(packetPulled)
attr title "queueing times, vector"
attr unit s
vector 50 Red4Tcp.switch1.eth[1].mac txPk:vector(packetBytes) ETV
attr interpolationmode none
attr source packetSentToLower
attr title "packets transmitted, vector(packetBytes)"
vector 51 Red4Tcp.switch1.eth[2].mac txPk:vector(packetBytes) ETV
attr interpolationmode none
attr source packetSentToLower
attr title "packets transmitted, vector(packetBytes)"
vector 52 Red4Tcp.switch2.eth[1].mac txPk:vector(packetBytes) ETV
attr interpolationmode none
attr source packetSentToLower
attr title "packets transmitted, vector(packetBytes)"
vector 53 Red4Tcp.switch2.eth[2].mac txPk:vector(packetBytes) ETV
attr interpolationmode none
attr source packetSentToLower
attr title "packets transmitted, vector(packetBytes)"
vector 54 Red4Tcp.hB.eth[0].mac rxPkOk:vector(packetBytes) ETV
attr interpolationmode none
attr source rxPkOk
attr title "packets received OK, vector(packetBytes)"
vector 55 Red4Tcp.hB.eth[0].mac passedUpPk:vector(packetBytes) ETV
attr interpolationmode none
attr source packetSentToUpper
attr title "packets passed to higher layer, vector(packetBytes)"
vector 56 Red4Tcp.switch2.eth[2].mac rxPkOk:vector(packetBytes) ETV
attr interpolationmode none
attr source rxPkOk
attr title "packets received OK, vector(packetBytes)"
vector 57 Red4Tcp.switch2.eth[2].mac passedUpPk:vector(packetBytes) ETV
attr interpolationmode none
attr source packetSentToUpper
attr title "packets passed to higher layer, vector(packetBytes)"
vector 58 Red4Tcp.hD.eth[0].mac rxPkOk:vector(packetBytes) ETV
attr interpolationmode none
attr source rxPkOk
attr title "packets received OK, vector(packetBytes)"
vector 59 Red4Tcp.hD.eth[0].mac passedUpPk:vector(packetBytes) ETV
attr interpolationmode none
attr source packetSentToUpper
attr title "packets passed to higher layer, vector(packetBytes)"
vector 60 Red4Tcp.switch1.eth[2].mac rxPkOk:vector(packetBytes) ETV
attr interpolationmode none
attr source rxPkOk
attr title "packets received OK, vector(packetBytes)"
vector 61 Red4Tcp.switch1.eth[2].mac passedUpPk:vector(packetBytes) ETV
attr interpolationmode none
attr source packetSentToUpper
attr title "packets passed to higher layer, vector(packetBytes)"
vector 62 Red4Tcp.hB.eth[0].encap decapPk:vector(packetBytes) ETV
attr interpolationmode none
attr source decapPk
attr title "packets decapsulated, vector(packetBytes)"
vector 63 Red4Tcp.hD.eth[0].encap decapPk:vector(packetBytes) ETV
attr interpolationmode none
attr source decapPk
attr title "packets decapsulated, vector(packetBytes)"
vector 64 Red4Tcp.hB.ipv4.arp arpReplySent:vector(packetBytes) ETV
attr source arpReplySent
attr title "ARP replies sent, vector(packetBytes)"
vector 65 Red4Tcp.switch2.eth[0].mac packetReceivedFromUpper:vector(packetBytes) ETV
attr interpolationmode none
attr source packetReceivedFromUpper
attr title "packet bytes from higher layer, vector(packetBytes)"
vector 66 Red4Tcp.switch2.eth[0].mac.queue packetPushed:vector(packetBytes) ETV
attr interpolationmode none
attr title "packet pushed, vector(packetBytes)"
vector 67 Red4Tcp.switch2.eth[0].mac.queue queueLength:vector ETV
attr autoWarmupFilter false
attr interpolationmode sample-hold
attr source "warmup(count(packetPushed) - count(packetPulled) - count(packetRemoved) - count(packetDropped))"
attr title "queue length, vector"
attr type int
vector 68 Red4Tcp.switch2.eth[0].mac.queue packetPulled:vector(packetBytes) ETV
attr interpolationmode none
attr title "packet pulled, vector(packetBytes)"
vector 69 Red4Tcp.switch2.eth[0].mac.queue queueingTime:vector ETV
attr interpolationmode none
attr source queueingTime(packetPulled)
attr title "queueing times, vector"
attr unit s
vector 70 Red4Tcp.switch1.eth[0].mac packetReceivedFromUpper:vector(packetBytes) ETV
attr interpolationmode none
attr source packetReceivedFromUpper
attr title "packet bytes from higher layer, vector(packetBytes)"
vector 71 Red4Tcp.switch1.eth[0].mac.queue packetPushed:vector(packetBytes) ETV
attr interpolationmode none
attr title "packet pushed, vector(packetBytes)"
vector 72 Red4Tcp.switch1.eth[0].mac.queue queueLength:vector ETV
attr autoWarmupFilter false
attr interpolationmode sample-hold
attr source "warmup(count(packetPushed) - count(packetPulled) - count(packetRemoved) - count(packetDropped))"
attr title "queue length, vector"
attr type int
vector 73 Red4Tcp.switch1.eth[0].mac.queue packetPulled:vector(packetBytes) ETV
attr interpolationmode none
attr title "packet pulled, vector(packetBytes)"
vector 74 Red4Tcp.switch1.eth[0].mac.queue queueingTime:vector ETV
attr interpolationmode none
attr source queueingTime(packetPulled)
attr title "queueing times, vector"
attr unit s
vector 75 Red4Tcp.hB.eth[0].encap encapPk:vector(packetBytes) ETV
attr interpolationmode none
attr source encapPk
attr title "packets encapsulated, vector(packetBytes)"
vector 76 Red4Tcp.hB.eth[0].mac packetReceivedFromUpper:vector(packetBytes) ETV
attr interpolationmode none
attr source packetReceivedFromUpper
attr title "packet bytes from higher layer, vector(packetBytes)"
vector 77 Red4Tcp.hB.eth[0].mac.queue packetPushed:vector(packetBytes) ETV
attr interpolationmode none
attr title "packet pushed, vector(packetBytes)"
vector 78 Red4Tcp.hB.eth[0].mac.queue queueLength:vector ETV
attr autoWarmupFilter false
attr interpolationmode sample-hold
attr source "warmup(count(packetPushed) - count(packetPulled) - count(packetRemoved) - count(packetDropped))"
attr title "queue length, vector"
attr type int
vector 79 Red4Tcp.hB.eth[0].mac.queue packetPulled:vector(packetBytes) ETV
attr interpolationmode none
attr title "packet pulled, vector(packetBytes)"
vector 80 Red4Tcp.hB.eth[0].mac.queue queueingTime:vector ETV
attr interpolationmode none
attr source queueingTime(packetPulled)
attr title "queueing times, vector"
attr unit s
vector 81 Red4Tcp.switch2.eth[0].mac txPk:vector(packetBytes) ETV
attr interpolationmode none
attr source packetSentToLower
attr title "packets transmitted, vector(packetBytes)"
vector 82 Red4Tcp.switch1.eth[0].mac txPk:vector(packetBytes) ETV
attr interpolationmode none
attr source packetSentToLower
attr title "packets transmitted, vector(packetBytes)"
vector 83 Red4Tcp.hB.eth[0].mac txPk:vector(packetBytes) ETV
attr interpolationmode none
attr source packetSentToLower
attr title "packets transmitted, vector(packetBytes)"
vector 84 Red4Tcp.hC.eth[0].mac rxPkOk:vector(packetBytes) ETV
attr interpolationmode none
attr source rxPkOk
attr title "packets received OK, vector(packetBytes)"
vector 85 Red4Tcp.hC.eth[0].mac passedUpPk:vector(packetBytes) ETV
attr interpolationmode none
attr source packetSentToUpper
attr title "packets passed to higher layer, vector(packetBytes)"
vector 86 Red4Tcp.hA.eth[0].mac rxPkOk:vector(packetBytes) ETV
attr interpolationmode none
attr source rxPkOk
attr title "packets received OK, vector(packetBytes)"
vector 87 Red4Tcp.hA.eth[0].mac passedUpPk:vector(packetBytes) ETV
attr interpolationmode none
attr source packetSentToUpper
attr title "packets passed to higher layer, vector(packetBytes)"
vector 88 Red4Tcp.switch1.eth[1].mac rxPkOk:vector(packetBytes) ETV
attr interpolationmode none
attr source rxPkOk
attr title "packets received OK, vector(packetBytes)"
vector 89 Red4Tcp.switch1.eth[1].mac passedUpPk:vector(packetBytes) ETV
attr interpolationmode none
attr source packetSentToUpper
attr title "packets passed to higher layer, vector(packetBytes)"
vector 90 Red4Tcp.hC.eth[0].encap decapPk:vector(packetBytes) ETV
attr interpolationmode none
attr source decapPk
attr title "packets decapsulated, vector(packetBytes)"
vector 91 Red4Tcp.hA.eth[0].encap decapPk:vector(packetBytes) ETV
attr interpolationmode none
attr source decapPk
attr title "packets decapsulated, vector(packetBytes)"
vector 92 Red4Tcp.hA.tcp.conn-4 rcvSeq:vector ETV
attr interpolationmode sample-hold
vector 93 Red4Tcp.hA.tcp.conn-4 rcvAck:vector ETV
attr interpolationmode sample-hold
vector 94 Red4Tcp.hA.tcp.conn-4 tcpRcvPayloadBytes:vector ETV
attr interpolationmode sample-hold
94	17574 22 134 134 1.0000081152 1.0000081152 1 0 0 0 0
2	17596 8 5 5 1 1 1 0 0 0 0
93	17604 27 134 134 1.0000081152 1.0000081152 1 250001 250001 250001 62500500001
92	17631 22 134 134 1.0000081152 1.0000081152 1 0 0 0 0
5	17653 8 5 5 1 1 1 0 0 0 0
3	17661 11 5 5 1 1 1 7504 7504 7504 56310016
4	17672 11 5 5 1 1 1 7504 7504 7504 56310016
vector 95 Red4Tcp.hA.tcp.conn-8 tcpRcvQueueBytes:vector ETV
attr interpolationmode sample-hold
vector 96 Red4Tcp.hA.tcp.conn-8 rcvAdv:vector ETV
attr interpolationmode sample-hold
vector 97 Red4Tcp.hA.tcp.conn-8 rcvWnd:vector ETV
attr interpolationmode sample-hold
vector 98 Red4Tcp.hA.tcp.conn-8 sndAck:vector ETV
attr interpolationmode sample-hold
vector 99 Red4Tcp.hC.tcp.conn-6 rcvSeq:vector ETV
attr interpolationmode sample-hold
vector 100 Red4Tcp.hC.tcp.conn-6 rcvAck:vector ETV
attr interpolationmode sample-hold
vector 101 Red4Tcp.hC.tcp.conn-6 tcpRcvPayloadBytes:vector ETV
attr interpolationmode sample-hold
101	18302 23 190 190 1.0000121728 1.0000121728 1 0 0 0 0
6	18325 8 6 6 1 1 1 0 0 0 0
100	18333 28 190 190 1.0000121728 1.0000121728 1 250001 250001 250001 62500500001
99	18361 22 190 190 1.0000121728 1.0000121728 1 0 0 0 0
9	18383 8 6 6 1 1 1 0 0 0 0
7	18391 11 6 6 1 1 1 7504 7504 7504 56310016
8	18402 11 6 6 1 1 1 7504 7504 7504 56310016
vector 102 Red4Tcp.hA.tcp.conn-8 rcvSeq:vector ETV
attr interpolationmode sample-hold
vector 103 Red4Tcp.hA.tcp.conn-8 rcvAck:vector ETV
attr interpolationmode sample-hold
vector 104 Red4Tcp.hA.tcp.conn-8 tcpRcvPayloadBytes:vector ETV
attr interpolationmode sample-hold
104	18683 23 191 191 1.0000121728 1.0000121728 1 0 0 0 0
95	18706 22 138 138 1.0000081152 1.0000081152 1 0 0 0 0
103	18728 28 191 191 1.0000121728 1.0000121728 1 250003 250003 250003 62501500009
102	18756 23 191 191 1.0000121728 1.0000121728 1 0 0 0 0
98	18779 22 138 138 1.0000081152 1.0000081152 1 0 0 0 0
96	18801 25 138 138 1.0000081152 1.0000081152 1 7504 7504 7504 56310016
97	18826 25 138 138 1.0000081152 1.0000081152 1 7504 7504 7504 56310016
vector 105 Red4Tcp.hC.tcp.conn-9 tcpRcvQueueBytes:vector ETV
attr interpolationmode sample-hold
vector 106 Red4Tcp.hC.tcp.conn-9 rcvAdv:vector ETV
attr interpolationmode sample-hold
vector 107 Red4Tcp.hC.tcp.conn-9 rcvWnd:vector ETV
attr interpolationmode sample-hold
vector 108 Red4Tcp.hC.tcp.conn-9 sndAck:vector ETV
attr interpolationmode sample-hold
vector 109 Red4Tcp.hA.tcp.conn-10 tcpRcvQueueBytes:vector ETV
attr interpolationmode sample-hold
vector 110 Red4Tcp.hA.tcp.conn-10 rcvAdv:vector ETV
attr interpolationmode sample-hold
vector 111 Red4Tcp.hA.tcp.conn-10 rcvWnd:vector ETV
attr interpolationmode sample-hold
vector 112 Red4Tcp.hA.tcp.conn-10 sndAck:vector ETV
attr interpolationmode sample-hold
vector 113 Red4Tcp.hA.tcp.conn-10 rcvSeq:vector ETV
attr interpolationmode sample-hold
vector 114 Red4Tcp.hA.tcp.conn-10 rcvAck:vector ETV
attr interpolationmode sample-hold
vector 115 Red4Tcp.hA.tcp.conn-10 tcpRcvPayloadBytes:vector ETV
attr interpolationmode sample-hold
115	19836 23 254 254 1.0000162304 1.0000162304 1 0 0 0 0
109	19859 23 199 199 1.0000121728 1.0000121728 1 0 0 0 0
114	19882 28 254 254 1.0000162304 1.0000162304 1 250004 250004 250004 62502000016
113	19910 23 254 254 1.0000162304 1.0000162304 1 0 0 0 0
112	19933 23 199 199 1.0000121728 1.0000121728 1 0 0 0 0
110	19956 26 199 199 1.0000121728 1.0000121728 1 7504 7504 7504 56310016
111	19982 26 199 199 1.0000121728 1.0000121728 1 7504 7504 7504 56310016
vector 116 Red4Tcp.hA.tcp.conn-11 tcpRcvQueueBytes:vector ETV
attr interpolationmode sample-hold
vector 117 Red4Tcp.hA.tcp.conn-11 rcvAdv:vector ETV
attr interpolationmode sample-hold
vector 118 Red4Tcp.hA.tcp.conn-11 rcvWnd:vector ETV
attr interpolationmode sample-hold
vector 119 Red4Tcp.hA.tcp.conn-11 sndAck:vector ETV
attr interpolationmode sample-hold
vector 120 Red4Tcp.hC.tcp.conn-9 rcvSeq:vector ETV
attr interpolationmode sample-hold
vector 121 Red4Tcp.hC.tcp.conn-9 rcvAck:vector ETV
attr interpolationmode sample-hold
vector 122 Red4Tcp.hC.tcp.conn-9 tcpRcvPayloadBytes:vector ETV
attr interpolationmode sample-hold
122	20636 23 282 282 1.0000182592 1.0000182592 1 0 0 0 0
105	20659 23 198 198 1.0000121728 1.0000121728 1 0 0 0 0
121	20682 28 282 282 1.0000182592 1.0000182592 1 250004 250004 250004 62502000016
120	20710 23 282 282 1.0000182592 1.0000182592 1 0 0 0 0
108	20733 23 198 198 1.0000121728 1.0000121728 1 0 0 0 0
106	20756 26 198 198 1.0000121728 1.0000121728 1 7504 7504 7504 56310016
107	20782 26 198 198 1.0000121728 1.0000121728 1 7504 7504 7504 56310016
vector 123 Red4Tcp.hC.tcp.conn-12 tcpRcvQueueBytes:vector ETV
attr interpolationmode sample-hold
vector 124 Red4Tcp.hC.tcp.conn-12 rcvAdv:vector ETV
attr interpolationmode sample-hold
vector 125 Red4Tcp.hC.tcp.conn-12 rcvWnd:vector ETV
attr interpolationmode sample-hold
vector 126 Red4Tcp.hC.tcp.conn-12 sndAck:vector ETV
attr interpolationmode sample-hold
vector 127 Red4Tcp.hA.tcp.conn-11 rcvSeq:vector ETV
attr interpolationmode sample-hold
vector 128 Red4Tcp.hA.tcp.conn-11 rcvAck:vector ETV
attr interpolationmode sample-hold
vector 129 Red4Tcp.hA.tcp.conn-11 tcpRcvPayloadBytes:vector ETV
attr interpolationmode sample-hold
129	21439 22 314 314 1.000020288 1.000020288 1 0 0 0 0
116	21461 23 258 258 1.0000162304 1.0000162304 1 0 0 0 0
128	21484 27 314 314 1.000020288 1.000020288 1 250005 250005 250005 62502500025
127	21511 22 314 314 1.000020288 1.000020288 1 0 0 0 0
119	21533 23 258 258 1.0000162304 1.0000162304 1 0 0 0 0
117	21556 26 258 258 1.0000162304 1.0000162304 1 7504 7504 7504 56310016
118	21582 26 258 258 1.0000162304 1.0000162304 1 7504 7504 7504 56310016
vector 130 Red4Tcp.hA.tcp.conn-13 tcpRcvQueueBytes:vector ETV
attr interpolationmode sample-hold
vector 131 Red4Tcp.hA.tcp.conn-13 rcvAdv:vector ETV
attr interpolationmode sample-hold
vector 132 Red4Tcp.hA.tcp.conn-13 rcvWnd:vector ETV
attr interpolationmode sample-hold
vector 133 Red4Tcp.hA.tcp.conn-13 sndAck:vector ETV
attr interpolationmode sample-hold
vector 134 Red4Tcp.hC.tcp.conn-12 rcvSeq:vector ETV
attr interpolationmode sample-hold
vector 135 Red4Tcp.hC.tcp.conn-12 rcvAck:vector ETV
attr interpolationmode sample-hold
vector 136 Red4Tcp.hC.tcp.conn-12 tcpRcvPayloadBytes:vector ETV
attr interpolationmode sample-hold
136	22239 23 370 370 1.0000243456 1.0000243456 1 0 0 0 0
123	22262 23 289 289 1.0000182592 1.0000182592 1 0 0 0 0
135	22285 28 370 370 1.0000243456 1.0000243456 1 250005 250005 250005 62502500025
134	22313 23 370 370 1.0000243456 1.0000243456 1 0 0 0 0
126	22336 23 289 289 1.0000182592 1.0000182592 1 0 0 0 0
124	22359 26 289 289 1.0000182592 1.0000182592 1 7504 7504 7504 56310016
125	22385 26 289 289 1.0000182592 1.0000182592 1 7504 7504 7504 56310016
vector 137 Red4Tcp.hA.tcp.conn-13 rcvSeq:vector ETV
attr interpolationmode sample-hold
vector 138 Red4Tcp.hA.tcp.conn-13 rcvAck:vector ETV
attr interpolationmode sample-hold
vector 139 Red4Tcp.hA.tcp.conn-13 tcpRcvPayloadBytes:vector ETV
attr interpolationmode sample-hold
139	22684 23 371 371 1.0000243456 1.0000243456 1 0 0 0 0
130	22707 22 318 318 1.000020288 1.000020288 1 0 0 0 0
138	22729 28 371 371 1.0000243456 1.0000243456 1 250006 250006 250006 62503000036
137	22757 23 371 371 1.0000243456 1.0000243456 1 0 0 0 0
133	22780 22 318 318 1.000020288 1.000020288 1 0 0 0 0
131	22802 25 318 318 1.000020288 1.000020288 1 7504 7504 7504 56310016
132	22827 25 318 318 1.000020288 1.000020288 1 7504 7504 7504 56310016
vector 140 Red4Tcp.hC.tcp.conn-14 tcpRcvQueueBytes:vector ETV
attr interpolationmode sample-hold
vector 141 Red4Tcp.hC.tcp.conn-14 rcvAdv:vector ETV
attr interpolationmode sample-hold
vector 142 Red4Tcp.hC.tcp.conn-14 rcvWnd:vector ETV
attr interpolationmode sample-hold
vector 143 Red4Tcp.hC.tcp.conn-14 sndAck:vector ETV
attr interpolationmode sample-hold
vector 144 Red4Tcp.hA.tcp.conn-15 tcpRcvQueueBytes:vector ETV
attr interpolationmode sample-hold
vector 145 Red4Tcp.hA.tcp.conn-15 rcvAdv:vector ETV
attr interpolationmode sample-hold
vector 146 Red4Tcp.hA.tcp.conn-15 rcvWnd:vector ETV
attr interpolationmode sample-hold
vector 147 Red4Tcp.hA.tcp.conn-15 sndAck:vector ETV
attr interpolationmode sample-hold
vector 148 Red4Tcp.hA.tcp.conn-15 rcvSeq:vector ETV
attr interpolationmode sample-hold
vector 149 Red4Tcp.hA.tcp.conn-15 rcvAck:vector ETV
attr interpolationmode sample-hold
vector 150 Red4Tcp.hA.tcp.conn-15 tcpRcvPayloadBytes:vector ETV
attr interpolationmode sample-hold
150	23841 23 434 434 1.0000284032 1.0000284032 1 0 0 0 0
144	23864 23 379 379 1.0000243456 1.0000243456 1 0 0 0 0
149	23887 28 434 434 1.0000284032 1.0000284032 1 250007 250007 250007 62503500049
148	23915 23 434 434 1.0000284032 1.0000284032 1 0 0 0 0
147	23938 23 379 379 1.0000243456 1.0000243456 1 0 0 0 0
145	23961 26 379 379 1.0000243456 1.0000243456 1 7504 7504 7504 56310016
146	23987 26 379 379 1.0000243456 1.0000243456 1 7504 7504 7504 56310016
vector 151 Red4Tcp.hA.tcp.conn-16 tcpRcvQueueBytes:vector ETV
attr interpolationmode sample-hold
vector 152 Red4Tcp.hA.tcp.conn-16 rcvAdv:vector ETV
attr interpolationmode sample-hold
vector 153 Red4Tcp.hA.tcp.conn-16 rcvWnd:vector ETV
attr interpolationmode sample-hold
vector 154 Red4Tcp.hA.tcp.conn-16 sndAck:vector ETV
attr interpolationmode sample-hold
vector 155 Red4Tcp.hC.tcp.conn-14 rcvSeq:vector ETV
attr interpolationmode sample-hold
vector 156 Red4Tcp.hC.tcp.conn-14 rcvAck:vector ETV
attr interpolationmode sample-hold
vector 157 Red4Tcp.hC.tcp.conn-14 tcpRcvPayloadBytes:vector ETV
attr interpolationmode sample-hold
157	24644 22 462 462 1.000030432 1.000030432 1 0 0 0 0
140	24666 23 378 378 1.0000243456 1.0000243456 1 0 0 0 0
156	24689 27 462 462 1.000030432 1.000030432 1 250007 250007 250007 62503500049
155	24716 22 462 462 1.000030432 1.000030432 1 0 0 0 0
143	24738 23 378 378 1.0000243456 1.0000243456 1 0 0 0 0
141	24761 26 378 378 1.0000243456 1.0000243456 1 7504 7504 7504 56310016
142	24787 26 378 378 1.0000243456 1.0000243456 1 7504 7504 7504 56310016
vector 158 Red4Tcp.hC.tcp.conn-17 tcpRcvQueueBytes:vector ETV
attr interpolationmode sample-hold
vector 159 Red4Tcp.hC.tcp.conn-17 rcvAdv:vector ETV
attr interpolationmode sample-hold
vector 160 Red4Tcp.hC.tcp.conn-17 rcvWnd:vector ETV
attr interpolationmode sample-hold
vector 161 Red4Tcp.hC.tcp.conn-17 sndAck:vector ETV
attr interpolationmode sample-hold
vector 162 Red4Tcp.hA.tcp.conn-16 rcvSeq:vector ETV
attr interpolationmode sample-hold
vector 163 Red4Tcp.hA.tcp.conn-16 rcvAck:vector ETV
attr interpolationmode sample-hold
vector 164 Red4Tcp.hA.tcp.conn-16 tcpRcvPayloadBytes:vector ETV
attr interpolationmode sample-hold
164	25444 23 494 494 1.0000324608 1.0000324608 1 0 0 0 0
151	25467 23 438 438 1.0000284032 1.0000284032 1 0 0 0 0
163	25490 28 494 494 1.0000324608 1.0000324608 1 250008 250008 250008 62504000064
162	25518 23 494 494 1.0000324608 1.0000324608 1 0 0 0 0
154	25541 23 438 438 1.0000284032 1.0000284032 1 0 0 0 0
152	25564 26 438 438 1.0000284032 1.0000284032 1 7504 7504 7504 56310016
153	25590 26 438 438 1.0000284032 1.0000284032 1 7504 7504 7504 56310016
vector 165 Red4Tcp.hA.tcp.conn-18 tcpRcvQueueBytes:vector ETV
attr interpolationmode sample-hold
vector 166 Red4Tcp.hA.tcp.conn-18 rcvAdv:vector ETV
attr interpolationmode sample-hold
vector 167 Red4Tcp.hA.tcp.conn-18 rcvWnd:vector ETV
attr interpolationmode sample-hold
vector 168 Red4Tcp.hA.tcp.conn-18 sndAck:vector ETV
attr interpolationmode sample-hold
0	25974 154 1 497 1 1.0000324608 8 1 8 36 204
1	26128 91 3 467 1 1.000030432 5 1 5 15 55
10	26219 10 7 7 1 1 1 28 28 28 784
11	26229 10 8 8 1 1 1 28 28 28 784
12	26239 192 9 500 1 1.0000324608 9 28 44 380 16272
13	26431 125 10 472 1 1.000030432 6 28 44 248 10464
14	26556 193 11 501 1 1.0000324608 9 46 62 542 32868
15	26749 193 11 501 1 1.0000324608 9 46 62 542 32868
16	26942 368 11 501 1 1.0000324608 18 0 1 9 9
17	27310 193 11 501 1 1.0000324608 9 46 62 542 32868
18	27503 184 11 501 1 1.0000324608 9 0 0 0 0
19	27687 125 12 473 1 1.000030432 6 46 62 356 21336
20	27812 125 12 473 1 1.000030432 6 46 62 356 21336
21	27937 238 12 473 1 1.000030432 12 0 1 6 6
22	28175 125 12 473 1 1.000030432 6 46 62 356 21336
23	28300 119 12 473 1 1.000030432 6 0 0 0 0
24	28419 202 13 503 1.0000000144 1.0000324752 9 64 64 576 36864
25	28621 135 14 475 1.0000000144 1.0000304464 6 64 64 384 24576
26	28756 202 17 507 1.0000010144 1.0000334752 9 64 64 576 36864