version 3
run General-0-20210612-13:41:25-8601
attr configname General
attr datetime 20210612-13:41:25
attr datetimef 20210612-134125
attr experiment General
attr inifile omnetpp.ini
attr iterationvars ""
attr iterationvarsf ""
attr measurement ""
attr network Red
attr processid 8601
attr repetition 0
attr replication #0
attr resultdir results
attr runnumber 0
attr seedset 0
itervar iterationvarsd ""
config image-path ../../inet4/images
config network Red
config sim-time-limit 2s
config **.switch1.**.address "\"AAAAAA000001\""
config **.switch2.**.address "\"AAAAAA000002\""
config **.switch3.**.address "\"AAAAAA000003\""
config **.switch4.**.address "\"AAAAAA000004\""
config **.switch5.**.address "\"AAAAAA000005\""
config **.host1.cli.destAddress "\"host8\""
config **.host8.cli.destAddress "\"host5\""
config **.host4.cli.destAddress "\"host5\""

vector 0 Red.host1.cli packetSent:vector(packetBytes) ETV
attr interpolationmode none
attr source packetSent
attr title "packets sent, vector(packetBytes)"
vector 1 Red.host1.llc encapPk:vector(packetBytes) ETV
attr interpolationmode none
attr source encapPk
attr title "packets encapsulated, vector(packetBytes)"
vector 2 Red.host1.eth.mac packetReceivedFromUpper:vector(packetBytes) ETV
attr interpolationmode none
attr source packetReceivedFromUpper
attr title "packet bytes from higher layer, vector(packetBytes)"
vector 3 Red.host1.eth.mac.queue packetPushed:vector(packetBytes) ETV
attr interpolationmode none
attr title "packet pushed, vector(packetBytes)"
vector 4 Red.host1.eth.mac.queue queueLength:vector ETV
attr interpolationmode sample-hold
attr source "count(packetPushed) - count(packetPopped) - count(packetRemoved) - count(packetDropped)"
attr title "queue length, vector"
vector 5 Red.host1.eth.mac.queue packetPopped:vector(packetBytes) ETV
attr interpolationmode none
attr title "packet popped, vector(packetBytes)"
vector 6 Red.host1.eth.mac.queue queueingTime:vector ETV
attr interpolationmode none
attr source queueingTime(packetPopped)
attr title "queueing times, vector"
attr unit s
vector 7 Red.host1.eth.mac txPk:vector(packetBytes) ETV
attr interpolationmode none
attr source packetSentToLower
attr title "packets transmitted, vector(packetBytes)"
vector 8 Red.switch1.eth[0].mac rxPkOk:vector(packetBytes) ETV
attr interpolationmode none
attr source rxPkOk
attr title "packets received OK, vector(packetBytes)"
vector 9 Red.switch1.eth[0].mac passedUpPk:vector(packetBytes) ETV
attr interpolationmode none
attr source packetSentToUpper
attr title "packets passed to higher layer, vector(packetBytes)"
vector 10 Red.switch1.eth[1].mac packetReceivedFromUpper:vector(packetBytes) ETV
attr interpolationmode none
attr source packetReceivedFromUpper
attr title "packet bytes from higher layer, vector(packetBytes)"
vector 11 Red.switch1.eth[1].mac.queue packetPushed:vector(packetBytes) ETV
attr interpolationmode none
attr title "packet pushed, vector(packetBytes)"
vector 12 Red.switch1.eth[1].mac.queue queueLength:vector ETV
attr interpolationmode sample-hold
attr source "count(packetPushed) - count(packetPopped) - count(packetRemoved) - count(packetDropped)"
attr title "queue length, vector"
vector 13 Red.switch1.eth[1].mac.queue packetPopped:vector(packetBytes) ETV
attr interpolationmode none
attr title "packet popped, vector(packetBytes)"
vector 14 Red.switch1.eth[1].mac.queue queueingTime:vector ETV
attr interpolationmode none
attr source queueingTime(packetPopped)
attr title "queueing times, vector"
attr unit s
vector 15 Red.switch1.eth[2].mac packetReceivedFromUpper:vector(packetBytes) ETV
attr interpolationmode none
attr source packetReceivedFromUpper
attr title "packet bytes from higher layer, vector(packetBytes)"
vector 16 Red.switch1.eth[2].mac.queue packetPushed:vector(packetBytes) ETV
attr interpolationmode none
attr title "packet pushed, vector(packetBytes)"
vector 17 Red.switch1.eth[2].mac.queue queueLength:vector ETV
attr interpolationmode sample-hold
attr source "count(packetPushed) - count(packetPopped) - count(packetRemoved) - count(packetDropped)"
attr title "queue length, vector"
vector 18 Red.switch1.eth[2].mac.queue packetPopped:vector(packetBytes) ETV
attr interpolationmode none
attr title "packet popped, vector(packetBytes)"
vector 19 Red.switch1.eth[2].mac.queue queueingTime:vector ETV
attr interpolationmode none
attr source queueingTime(packetPopped)
attr title "queueing times, vector"
attr unit s
vector 20 Red.switch1.eth[1].mac txPk:vector(packetBytes) ETV
attr interpolationmode none
attr source packetSentToLower
attr title "packets transmitted, vector(packetBytes)"
vector 21 Red.switch1.eth[2].mac txPk:vector(packetBytes) ETV
attr interpolationmode none
attr source packetSentToLower
attr title "packets transmitted, vector(packetBytes)"
vector 22 Red.host2.eth.mac packetDropNotAddressedToUs:vector(packetBytes) ETV
attr interpolationmode none
attr source packetDropReasonIsNotAddressedToUs(packetDropped)
attr title "packet drop: not addressed to us, vector(packetBytes)"
vector 23 Red.switch5.eth[0].mac rxPkOk:vector(packetBytes) ETV
attr interpolationmode none
attr source rxPkOk
attr title "packets received OK, vector(packetBytes)"
vector 24 Red.switch5.eth[0].mac passedUpPk:vector(packetBytes) ETV
attr interpolationmode none
attr source packetSentToUpper
attr title "packets passed to higher layer, vector(packetBytes)"
vector 25 Red.switch5.eth[1].mac packetReceivedFromUpper:vector(packetBytes) ETV
attr interpolationmode none
attr source packetReceivedFromUpper
attr title "packet bytes from higher layer, vector(packetBytes)"
vector 26 Red.switch5.eth[1].mac.queue packetPushed:vector(packetBytes) ETV
attr interpolationmode none
attr title "packet pushed, vector(packetBytes)"
vector 27 Red.switch5.eth[1].mac.queue queueLength:vector ETV
attr interpolationmode sample-hold
attr source "count(packetPushed) - count(packetPopped) - count(packetRemoved) - count(packetDropped)"
attr title "queue length, vector"
vector 28 Red.switch5.eth[1].mac.queue packetPopped:vector(packetBytes) ETV
attr interpolationmode none
attr title "packet popped, vector(packetBytes)"
vector 29 Red.switch5.eth[1].mac.queue queueingTime:vector ETV
attr interpolationmode none
attr source queueingTime(packetPopped)
attr title "queueing times, vector"
attr unit s
vector 30 Red.switch5.eth[2].mac packetReceivedFromUpper:vector(packetBytes) ETV
attr interpolationmode none
attr source packetReceivedFromUpper
attr title "packet bytes from higher layer, vector(packetBytes)"
vector 31 Red.switch5.eth[2].mac.queue packetPushed:vector(packetBytes) ETV
attr interpolationmode none
attr title "packet pushed, vector(packetBytes)"
vector 32 Red.switch5.eth[2].mac.queue queueLength:vector ETV
attr interpolationmode sample-hold
attr source "count(packetPushed) - count(packetPopped) - count(packetRemoved) - count(packetDropped)"
attr title "queue length, vector"
vector 33 Red.switch5.eth[2].mac.queue packetPopped:vector(packetBytes) ETV
attr interpolationmode none
attr title "packet popped, vector(packetBytes)"
vector 34 Red.switch5.eth[2].mac.queue queueingTime:vector ETV
attr interpolationmode none
attr source queueingTime(packetPopped)
attr title "queueing times, vector"
attr unit s
vector 35 Red.switch5.eth[3].mac packetReceivedFromUpper:vector(packetBytes) ETV
attr interpolationmode none
attr source packetReceivedFromUpper
attr title "packet bytes from higher layer, vector(packetBytes)"
vector 36 Red.switch5.eth[3].mac.queue packetPushed:vector(packetBytes) ETV
attr interpolationmode none
attr title "packet pushed, vector(packetBytes)"
vector 37 Red.switch5.eth[3].mac.queue queueLength:vector ETV
attr interpolationmode sample-hold
attr source "count(packetPushed) - count(packetPopped) - count(packetRemoved) - count(packetDropped)"
attr title "queue length, vector"
vector 38 Red.switch5.eth[3].mac.queue packetPopped:vector(packetBytes) ETV
attr interpolationmode none
attr title "packet popped, vector(packetBytes)"
vector 39 Red.switch5.eth[3].mac.queue queueingTime:vector ETV
attr interpolationmode none
attr source queueingTime(packetPopped)
attr title "queueing times, vector"
attr unit s
vector 40 Red.switch5.eth[1].mac txPk:vector(packetBytes) ETV
attr interpolationmode none
attr source packetSentToLower
attr title "packets transmitted, vector(packetBytes)"
vector 41 Red.switch5.eth[2].mac txPk:vector(packetBytes) ETV
attr interpolationmode none
attr source packetSentToLower
attr title "packets transmitted, vector(packetBytes)"
vector 42 Red.switch5.eth[3].mac txPk:vector(packetBytes) ETV
attr interpolationmode none
attr source packetSentToLower
attr title "packets transmitted, vector(packetBytes)"
vector 43 Red.switch2.eth[2].mac rxPkOk:vector(packetBytes) ETV
attr interpolationmode none
attr source rxPkOk
attr title "packets received OK, vector(packetBytes)"
vector 44 Red.switch2.eth[2].mac passedUpPk:vector(packetBytes) ETV
attr interpolationmode none
attr source packetSentToUpper
attr title "packets passed to higher layer, vector(packetBytes)"
vector 45 Red.switch3.eth[2].mac rxPkOk:vector(packetBytes) ETV
attr interpolationmode none
attr source rxPkOk
attr title "packets received OK, vector(packetBytes)"
vector 46 Red.switch3.eth[2].mac passedUpPk:vector(packetBytes) ETV
attr interpolationmode none
attr source packetSentToUpper
attr title "packets passed to higher layer, vector(packetBytes)"
vector 47 Red.switch4.eth[2].mac rxPkOk:vector(packetBytes) ETV
attr interpolationmode none
attr source rxPkOk
attr title "packets received OK, vector(packetBytes)"
vector 48 Red.switch4.eth[2].mac passedUpPk:vector(packetBytes) ETV
attr interpolationmode none
attr source packetSentToUpper
attr title "packets passed to higher layer, vector(packetBytes)"
vector 49 Red.switch2.eth[0].mac packetReceivedFromUpper:vector(packetBytes) ETV
attr interpolationmode none
attr source packetReceivedFromUpper
attr title "packet bytes from higher layer, vector(packetBytes)"
vector 50 Red.switch2.eth[0].mac.queue packetPushed:vector(packetBytes) ETV
attr interpolationmode none
attr title "packet pushed, vector(packetBytes)"
vector 51 Red.switch2.eth[0].mac.queue queueLength:vector ETV
attr interpolationmode sample-hold
attr source "count(packetPushed) - count(packetPopped) - count(packetRemoved) - count(packetDropped)"
attr title "queue length, vector"
vector 52 Red.switch2.eth[0].mac.queue packetPopped:vector(packetBytes) ETV
attr interpolationmode none
attr title "packet popped, vector(packetBytes)"
vector 53 Red.switch2.eth[0].mac.queue queueingTime:vector ETV
attr interpolationmode none
attr source queueingTime(packetPopped)
attr title "queueing times, vector"
attr unit s
vector 54 Red.switch2.eth[1].mac packetReceivedFromUpper:vector(packetBytes) ETV
attr interpolationmode none
attr source packetReceivedFromUpper
attr title "packet bytes from higher layer, vector(packetBytes)"
vector 55 Red.switch2.eth[1].mac.queue packetPushed:vector(packetBytes) ETV
attr interpolationmode none
attr title "packet pushed, vector(packetBytes)"
vector 56 Red.switch2.eth[1].mac.queue queueLength:vector ETV
attr interpolationmode sample-hold
attr source "count(packetPushed) - count(packetPopped) - count(packetRemoved) - count(packetDropped)"
attr title "queue length, vector"
vector 57 Red.switch2.eth[1].mac.queue packetPopped:vector(packetBytes) ETV
attr interpolationmode none
attr title "packet popped, vector(packetBytes)"
vector 58 Red.switch2.eth[1].mac.queue queueingTime:vector ETV
attr interpolationmode none
attr source queueingTime(packetPopped)
attr title "queueing times, vector"
attr unit s
vector 59 Red.switch3.eth[0].mac packetReceivedFromUpper:vector(packetBytes) ETV
attr interpolationmode none
attr source packetReceivedFromUpper
attr title "packet bytes from higher layer, vector(packetBytes)"
vector 60 Red.switch3.eth[0].mac.queue packetPushed:vector(packetBytes) ETV
attr interpolationmode none
attr title "packet pushed, vector(packetBytes)"
vector 61 Red.switch3.eth[0].mac.queue queueLength:vector ETV
attr interpolationmode sample-hold
attr source "count(packetPushed) - count(packetPopped) - count(packetRemoved) - count(packetDropped)"
attr title "queue length, vector"
vector 62 Red.switch3.eth[0].mac.queue packetPopped:vector(packetBytes) ETV
attr interpolationmode none
attr title "packet popped, vector(packetBytes)"
vector 63 Red.switch3.eth[0].mac.queue queueingTime:vector ETV
attr interpolationmode none
attr source queueingTime(packetPopped)
attr title "queueing times, vector"
attr unit s
vector 64 Red.switch3.eth[1].mac packetReceivedFromUpper:vector(packetBytes) ETV
attr interpolationmode none
attr source packetReceivedFromUpper
attr title "packet bytes from higher layer, vector(packetBytes)"
vector 65 Red.switch3.eth[1].mac.queue packetPushed:vector(packetBytes) ETV
attr interpolationmode none
attr title "packet pushed, vector(packetBytes)"
vector 66 Red.switch3.eth[1].mac.queue queueLength:vector ETV
attr interpolationmode sample-hold
attr source "count(packetPushed) - count(packetPopped) - count(packetRemoved) - count(packetDropped)"
attr title "queue length, vector"
vector 67 Red.switch3.eth[1].mac.queue packetPopped:vector(packetBytes) ETV
attr interpolationmode none
attr title "packet popped, vector(packetBytes)"
vector 68 Red.switch3.eth[1].mac.queue queueingTime:vector ETV
attr interpolationmode none
attr source queueingTime(packetPopped)
attr title "queueing times, vector"
attr unit s
vector 69 Red.switch4.eth[0].mac packetReceivedFromUpper:vector(packetBytes) ETV
attr interpolationmode none
attr source packetReceivedFromUpper
attr title "packet bytes from higher layer, vector(packetBytes)"
vector 70 Red.switch4.eth[0].mac.queue packetPushed:vector(packetBytes) ETV
attr interpolationmode none
attr title "packet pushed, vector(packetBytes)"
vector 71 Red.switch4.eth[0].mac.queue queueLength:vector ETV
attr interpolationmode sample-hold
attr source "count(packetPushed) - count(packetPopped) - count(packetRemoved) - count(packetDropped)"
attr title "queue length, vector"
vector 72 Red.switch4.eth[0].mac.queue packetPopped:vector(packetBytes) ETV
attr interpolationmode none
attr title "packet popped, vector(packetBytes)"
vector 73 Red.switch4.eth[0].mac.queue queueingTime:vector ETV
attr interpolationmode none
attr source queueingTime(packetPopped)
attr title "queueing times, vector"
attr unit s
vector 74 Red.switch4.eth[1].mac packetReceivedFromUpper:vector(packetBytes) ETV
attr interpolationmode none
attr source packetReceivedFromUpper
attr title "packet bytes from higher layer, vector(packetBytes)"
vector 75 Red.switch4.eth[1].mac.queue packetPushed:vector(packetBytes) ETV
attr interpolationmode none
attr title "packet pushed, vector(packetBytes)"
vector 76 Red.switch4.eth[1].mac.queue queueLength:vector ETV
attr interpolationmode sample-hold
attr source "count(packetPushed) - count(packetPopped) - count(packetRemoved) - count(packetDropped)"
attr title "queue length, vector"
vector 77 Red.switch4.eth[1].mac.queue packetPopped:vector(packetBytes) ETV
attr interpolationmode none
attr title "packet popped, vector(packetBytes)"
vector 78 Red.switch4.eth[1].mac.queue queueingTime:vector ETV
attr interpolationmode none
attr source queueingTime(packetPopped)
attr title "queueing times, vector"
attr unit s
vector 79 Red.switch2.eth[0].mac txPk:vector(packetBytes) ETV
attr interpolationmode none
attr source packetSentToLower
attr title "packets transmitted, vector(packetBytes)"
vector 80 Red.switch2.eth[1].mac txPk:vector(packetBytes) ETV
attr interpolationmode none
attr source packetSentToLower
attr title "packets transmitted, vector(packetBytes)"
vector 81 Red.switch3.eth[0].mac txPk:vector(packetBytes) ETV
attr interpolationmode none
attr source packetSentToLower
attr title "packets transmitted, vector(packetBytes)"
vector 82 Red.switch3.eth[1].mac txPk:vector(packetBytes) ETV
attr interpolationmode none
attr source packetSentToLower
attr title "packets transmitted, vector(packetBytes)"
vector 83 Red.switch4.eth[0].mac txPk:vector(packetBytes) ETV
attr interpolationmode none
attr source packetSentToLower
attr title "packets transmitted, vector(packetBytes)"
vector 84 Red.switch4.eth[1].mac txPk:vector(packetBytes) ETV
attr interpolationmode none
attr source packetSentToLower
attr title "packets transmitted, vector(packetBytes)"
vector 85 Red.host3.eth.mac packetDropNotAddressedToUs:vector(packetBytes) ETV
attr interpolationmode none
attr source packetDropReasonIsNotAddressedToUs(packetDropped)
attr title "packet drop: not addressed to us, vector(packetBytes)"
vector 86 Red.host4.eth.mac packetDropNotAddressedToUs:vector(packetBytes) ETV
attr interpolationmode none
attr source packetDropReasonIsNotAddressedToUs(packetDropped)
attr title "packet drop: not addressed to us, vector(packetBytes)"
vector 87 Red.host5.eth.mac packetDropNotAddressedToUs:vector(packetBytes) ETV
attr interpolationmode none
attr source packetDropReasonIsNotAddressedToUs(packetDropped)
attr title "packet drop: not addressed to us, vector(packetBytes)"
vector 88 Red.host6.eth.mac packetDropNotAddressedToUs:vector(packetBytes) ETV
attr interpolationmode none
attr source packetDropReasonIsNotAddressedToUs(packetDropped)
attr title "packet drop: not addressed to us, vector(packetBytes)"
vector 89 Red.host7.eth.mac packetDropNotAddressedToUs:vector(packetBytes) ETV
attr interpolationmode none
attr source packetDropReasonIsNotAddressedToUs(packetDropped)
attr title "packet drop: not addressed to us, vector(packetBytes)"
vector 90 Red.host8.eth.mac rxPkOk:vector(packetBytes) ETV
attr interpolationmode none
attr source rxPkOk
attr title "packets received OK, vector(packetBytes)"
vector 91 Red.host8.eth.mac passedUpPk:vector(packetBytes) ETV
attr interpolationmode none
attr source packetSentToUpper
attr title "packets passed to higher layer, vector(packetBytes)"
vector 92 Red.host8.srv packetReceived:vector(packetBytes) ETV
attr interpolationmode none
attr source packetReceived
attr title "packets received, vector(packetBytes)"
vector 93 Red.host8.srv endToEndDelay:vector ETV
attr interpolationmode none
attr source dataAge(packetReceived)
attr title "end-to-end delay, vector"
attr unit s
vector 94 Red.host8.srv packetSent:vector(packetBytes) ETV
attr interpolationmode none
attr source packetSent
attr title "packets sent, vector(packetBytes)"
vector 95 Red.host8.llc encapPk:vector(packetBytes) ETV
attr interpolationmode none
attr source encapPk
attr title "packets encapsulated, vector(packetBytes)"
vector 96 Red.host8.eth.mac packetReceivedFromUpper:vector(packetBytes) ETV
attr interpolationmode none
attr source packetReceivedFromUpper
attr title "packet bytes from higher layer, vector(packetBytes)"
vector 97 Red.host8.eth.mac.queue packetPushed:vector(packetBytes) ETV
attr interpolationmode none
attr title "packet pushed, vector(packetBytes)"
vector 98 Red.host8.eth.mac.queue queueLength:vector ETV
attr interpolationmode sample-hold
attr source "count(packetPushed) - count(packetPopped) - count(packetRemoved) - count(packetDropped)"
attr title "queue length, vector"
vector 99 Red.host8.eth.mac.queue packetPopped:vector(packetBytes) ETV
attr interpolationmode none
attr title "packet popped, vector(packetBytes)"
vector 100 Red.host8.eth.mac.queue queueingTime:vector ETV
attr interpolationmode none
attr source queueingTime(packetPopped)
attr title "queueing times, vector"
attr unit s
vector 101 Red.host8.eth.mac txPk:vector(packetBytes) ETV
attr interpolationmode none
attr source packetSentToLower
attr title "packets transmitted, vector(packetBytes)"
vector 102 Red.switch4.eth[1].mac rxPkOk:vector(packetBytes) ETV
attr interpolationmode none
attr source rxPkOk
attr title "packets received OK, vector(packetBytes)"
vector 103 Red.switch4.eth[1].mac passedUpPk:vector(packetBytes) ETV
attr interpolationmode none
attr source packetSentToUpper
attr title "packets passed to higher layer, vector(packetBytes)"
vector 104 Red.switch4.eth[2].mac packetReceivedFromUpper:vector(packetBytes) ETV
attr interpolationmode none
attr source packetReceivedFromUpper
attr title "packet bytes from higher layer, vector(packetBytes)"
vector 105 Red.switch4.eth[2].mac.queue packetPushed:vector(packetBytes) ETV
attr interpolationmode none
attr title "packet pushed, vector(packetBytes)"
vector 106 Red.switch4.eth[2].mac.queue queueLength:vector ETV
attr interpolationmode sample-hold
attr source "count(packetPushed) - count(packetPopped) - count(packetRemoved) - count(packetDropped)"
attr title "queue length, vector"
vector 107 Red.switch4.eth[2].mac.queue packetPopped:vector(packetBytes) ETV
attr interpolationmode none
attr title "packet popped, vector(packetBytes)"
vector 108 Red.switch4.eth[2].mac.queue queueingTime:vector ETV
attr interpolationmode none
attr source queueingTime(packetPopped)
attr title "queueing times, vector"
attr unit s
vector 109 Red.switch4.eth[2].mac txPk:vector(packetBytes) ETV
attr interpolationmode none
attr source packetSentToLower
attr title "packets transmitted, vector(packetBytes)"
vector 110 Red.switch5.eth[3].mac rxPkOk:vector(packetBytes) ETV
attr interpolationmode none
attr source rxPkOk
attr title "packets received OK, vector(packetBytes)"
vector 111 Red.switch5.eth[3].mac passedUpPk:vector(packetBytes) ETV
attr interpolationmode none
attr source packetSentToUpper
attr title "packets passed to higher layer, vector(packetBytes)"
vector 112 Red.switch5.eth[0].mac packetReceivedFromUpper:vector(packetBytes) ETV
attr interpolationmode none
attr source packetReceivedFromUpper
attr title "packet bytes from higher layer, vector(packetBytes)"
vector 113 Red.switch5.eth[0].mac.queue packetPushed:vector(packetBytes) ETV
attr interpolationmode none
attr title "packet pushed, vector(packetBytes)"
vector 114 Red.switch5.eth[0].mac.queue queueLength:vector ETV
attr interpolationmode sample-hold
attr source "count(packetPushed) - count(packetPopped) - count(packetRemoved) - count(packetDropped)"
attr title "queue length, vector"
vector 115 Red.switch5.eth[0].mac.queue packetPopped:vector(packetBytes) ETV
attr interpolationmode none
attr title "packet popped, vector(packetBytes)"
vector 116 Red.switch5.eth[0].mac.queue queueingTime:vector ETV
attr interpolationmode none
attr source queueingTime(packetPopped)
attr title "queueing times, vector"
attr unit s
vector 117 Red.switch5.eth[0].mac txPk:vector(packetBytes) ETV
attr interpolationmode none
attr source packetSentToLower
attr title "packets transmitted, vector(packetBytes)"
vector 118 Red.switch1.eth[2].mac rxPkOk:vector(packetBytes) ETV
attr interpolationmode none
attr source rxPkOk
attr title "packets received OK, vector(packetBytes)"
vector 119 Red.switch1.eth[2].mac passedUpPk:vector(packetBytes) ETV
attr interpolationmode none
attr source packetSentToUpper
attr title "packets passed to higher layer, vector(packetBytes)"
vector 120 Red.switch1.eth[0].mac packetReceivedFromUpper:vector(packetBytes) ETV
attr interpolationmode none
attr source packetReceivedFromUpper
attr title "packet bytes from higher layer, vector(packetBytes)"
vector 121 Red.switch1.eth[0].mac.queue packetPushed:vector(packetBytes) ETV
attr interpolationmode none
attr title "packet pushed, vector(packetBytes)"
vector 122 Red.switch1.eth[0].mac.queue queueLength:vector ETV
attr interpolationmode sample-hold
attr source "count(packetPushed) - count(packetPopped) - count(packetRemoved) - count(packetDropped)"
attr title "queue length, vector"
vector 123 Red.switch1.eth[0].mac.queue packetPopped:vector(packetBytes) ETV
attr interpolationmode none
attr title "packet popped, vector(packetBytes)"
vector 124 Red.switch1.eth[0].mac.queue queueingTime:vector ETV
attr interpolationmode none
attr source queueingTime(packetPopped)
attr title "queueing times, vector"
attr unit s
vector 125 Red.switch1.eth[0].mac txPk:vector(packetBytes) ETV
attr interpolationmode none
attr source packetSentToLower
attr title "packets transmitted, vector(packetBytes)"
vector 126 Red.host1.eth.mac rxPkOk:vector(packetBytes) ETV
attr interpolationmode none
attr source rxPkOk
attr title "packets received OK, vector(packetBytes)"
vector 127 Red.host1.eth.mac passedUpPk:vector(packetBytes) ETV
attr interpolationmode none
attr source packetSentToUpper
attr title "packets passed to higher layer, vector(packetBytes)"
vector 128 Red.host1.cli packetReceived:vector(packetBytes) ETV
attr interpolationmode none
attr source packetReceived
attr title "packets received, vector(packetBytes)"
vector 129 Red.host1.cli endToEndDelay:vector ETV
attr interpolationmode none
attr source dataAge(packetReceived)
attr title "end-to-end delay, vector"
attr unit s
vector 130 Red.host4.cli packetSent:vector(packetBytes) ETV
attr interpolationmode none
attr source packetSent
attr title "packets sent, vector(packetBytes)"
vector 131 Red.host4.llc encapPk:vector(packetBytes) ETV
attr interpolationmode none
attr source encapPk
attr title "packets encapsulated, vector(packetBytes)"
vector 132 Red.host4.eth.mac packetReceivedFromUpper:vector(packetBytes) ETV
attr interpolationmode none
attr source packetReceivedFromUpper
attr title "packet bytes from higher layer, vector(packetBytes)"
vector 133 Red.host4.eth.mac.queue packetPushed:vector(packetBytes) ETV
attr interpolationmode none
attr title "packet pushed, vector(packetBytes)"
vector 134 Red.host4.eth.mac.queue queueLength:vector ETV
attr interpolationmode sample-hold
attr source "count(packetPushed) - count(packetPopped) - count(packetRemoved) - count(packetDropped)"
attr title "queue length, vector"
vector 135 Red.host4.eth.mac.queue packetPopped:vector(packetBytes) ETV
attr interpolationmode none
attr title "packet popped, vector(packetBytes)"
vector 136 Red.host4.eth.mac.queue queueingTime:vector ETV
attr interpolationmode none
attr source queueingTime(packetPopped)
attr title "queueing times, vector"
attr unit s
vector 137 Red.host4.eth.mac txPk:vector(packetBytes) ETV
attr interpolationmode none
attr source packetSentToLower
attr title "packets transmitted, vector(packetBytes)"
vector 138 Red.switch2.eth[1].mac rxPkOk:vector(packetBytes) ETV
attr interpolationmode none
attr source rxPkOk
attr title "packets received OK, vector(packetBytes)"
vector 139 Red.switch2.eth[1].mac passedUpPk:vector(packetBytes) ETV
attr interpolationmode none
attr source packetSentToUpper
attr title "packets passed to higher layer, vector(packetBytes)"
vector 140 Red.switch2.eth[2].mac packetReceivedFromUpper:vector(packetBytes) ETV
attr interpolationmode none
attr source packetReceivedFromUpper
attr title "packet bytes from higher layer, vector(packetBytes)"
vector 141 Red.switch2.eth[2].mac.queue packetPushed:vector(packetBytes) ETV
attr interpolationmode none
attr title "packet pushed, vector(packetBytes)"
vector 142 Red.switch2.eth[2].mac.queue queueLength:vector ETV
attr interpolationmode sample-hold
attr source "count(packetPushed) - count(packetPopped) - count(packetRemoved) - count(packetDropped)"
attr title "queue length, vector"
vector 143 Red.switch2.eth[2].mac.queue packetPopped:vector(packetBytes) ETV
attr interpolationmode none
attr title "packet popped, vector(packetBytes)"
vector 144 Red.switch2.eth[2].mac.queue queueingTime:vector ETV
attr interpolationmode none
attr source queueingTime(packetPopped)
attr title "queueing times, vector"
attr unit s
vector 145 Red.switch2.eth[2].mac txPk:vector(packetBytes) ETV
attr interpolationmode none
attr source packetSentToLower
attr title "packets transmitted, vector(packetBytes)"
vector 146 Red.switch5.eth[1].mac rxPkOk:vector(packetBytes) ETV
attr interpolationmode none
attr source rxPkOk
attr title "packets received OK, vector(packetBytes)"
vector 147 Red.switch5.eth[1].mac passedUpPk:vector(packetBytes) ETV
attr interpolationmode none
attr source packetSentToUpper
attr title "packets passed to higher layer, vector(packetBytes)"
vector 148 Red.host1.eth.mac packetDropNotAddressedToUs:vector(packetBytes) ETV
attr interpolationmode none
attr source packetDropReasonIsNotAddressedToUs(packetDropped)
attr title "packet drop: not addressed to us, vector(packetBytes)"
vector 149 Red.host5.eth.mac rxPkOk:vector(packetBytes) ETV
attr interpolationmode none
attr source rxPkOk
attr title "packets received OK, vector(packetBytes)"
vector 150 Red.host5.eth.mac passedUpPk:vector(packetBytes) ETV
attr interpolationmode none
attr source packetSentToUpper
attr title "packets passed to higher layer, vector(packetBytes)"
vector 151 Red.host8.eth.mac packetDropNotAddressedToUs:vector(packetBytes) ETV
attr interpolationmode none
attr source packetDropReasonIsNotAddressedToUs(packetDropped)
attr title "packet drop: not addressed to us, vector(packetBytes)"
vector 152 Red.host5.srv packetReceived:vector(packetBytes) ETV
attr interpolationmode none
attr source packetReceived
attr title "packets received, vector(packetBytes)"
vector 153 Red.host5.srv endToEndDelay:vector ETV
attr interpolationmode none
attr source dataAge(packetReceived)
attr title "end-to-end delay, vector"
attr unit s
vector 154 Red.host5.srv packetSent:vector(packetBytes) ETV
attr interpolationmode none
attr source packetSent
attr title "packets sent, vector(packetBytes)"
vector 155 Red.host5.llc encapPk:vector(packetBytes) ETV
attr interpolationmode none
attr source encapPk
attr title "packets encapsulated, vector(packetBytes)"
vector 156 Red.host5.eth.mac packetReceivedFromUpper:vector(packetBytes) ETV
attr interpolationmode none
attr source packetReceivedFromUpper
attr title "packet bytes from higher layer, vector(packetBytes)"
vector 157 Red.host5.eth.mac.queue packetPushed:vector(packetBytes) ETV
attr interpolationmode none
attr title "packet pushed, vector(packetBytes)"
vector 158 Red.host5.eth.mac.queue queueLength:vector ETV
attr interpolationmode sample-hold
attr source "count(packetPushed) - count(packetPopped) - count(packetRemoved) - count(packetDropped)"
attr title "queue length, vector"
vector 159 Red.host5.eth.mac.queue packetPopped:vector(packetBytes) ETV