                                                                
version 3
run General-0-20210608-19:49:38-10415
attr configname General
attr datetime 20210608-19:49:38
attr datetimef 20210608-194938
attr experiment General
attr inifile omnetpp.ini
attr iterationvars ""
attr iterationvarsf ""
attr measurement ""
attr network Prueba2
attr processid 10415
attr repetition 0
attr replication #0
attr resultdir results
attr runnumber 0
attr seedset 0
itervar iterationvarsd ""
config image-path ../../inet4/images
config network Prueba2
config total-stack 7MiB
config **.numhosts 8
config **.numSwitch 8
config **.host*[*].numApps 1
config **.host*[*].app[0].typename UdpBasicBurst
config **.host*[*].app[0].localPort 100
config **.host*[*].app[0].destPort 100
config **.host*[*].app[0].messageLength 1250B
config **.host*[*].app[0].sendInterval 0.5s
config **.host1[0].app[0].destAddresses "\"host7[0]\""
config **.host*[*].app[0].burstDuration 10s
config **.host*[*].app[0].sleepDuration 2s
config **.host*[*].app[0].destAddresses "\"\""
config **.app[0].chooseDestAddrMode "\"perBurst\""
config **.app[0].startTime 60s
config **.app[0].stopTime 1000s
config **.app[0].delayLimit 3s
config **.ppp[*].ppp.queue.typename DropTailQueue

vector 0 Prueba2.host1[0].app[0] packetSent:vector(packetBytes) ETV
attr interpolationmode none
attr source packetSent
attr title "packets sent, vector(packetBytes)"
vector 1 Prueba2.host1[0].udp packetSent:vector(packetBytes) ETV
attr interpolationmode none
attr source packetSent
attr title "packets sent, vector(packetBytes)"
vector 2 Prueba2.host1[0].ipv4.arp arpRequestSent:vector(packetBytes) ETV
attr source arpRequestSent
attr title "ARP request sent, vector(packetBytes)"
vector 3 Prueba2.host1[0].eth[0].encap encapPk:vector(packetBytes) ETV
attr interpolationmode none
attr source encapPk
attr title "packets encapsulated, vector(packetBytes)"
vector 4 Prueba2.host1[0].eth[0].mac packetReceivedFromUpper:vector(packetBytes) ETV
attr interpolationmode none
attr source packetReceivedFromUpper
attr title "packet bytes from higher layer, vector(packetBytes)"
vector 5 Prueba2.host1[0].eth[0].mac.queue packetPushed:vector(packetBytes) ETV
attr interpolationmode none
attr title "packet pushed, vector(packetBytes)"
vector 6 Prueba2.host1[0].eth[0].mac.queue queueLength:vector ETV
attr interpolationmode sample-hold
attr source "count(packetPushed) - count(packetPopped) - count(packetRemoved) - count(packetDropped)"
attr title "queue length, vector"
vector 7 Prueba2.host1[0].eth[0].mac.queue packetPopped:vector(packetBytes) ETV
attr interpolationmode none
attr title "packet popped, vector(packetBytes)"
vector 8 Prueba2.host1[0].eth[0].mac.queue queueingTime:vector ETV
attr interpolationmode none
attr source queueingTime(packetPopped)
attr title "queueing times, vector"
attr unit s
vector 9 Prueba2.host1[0].eth[0].mac txPk:vector(packetBytes) ETV
attr interpolationmode none
attr source packetSentToLower
attr title "packets transmitted, vector(packetBytes)"
vector 10 Prueba2.switchArriba[0].eth[0].mac rxPkOk:vector(packetBytes) ETV
attr interpolationmode none
attr source rxPkOk
attr title "packets received OK, vector(packetBytes)"
vector 11 Prueba2.switchArriba[0].eth[0].mac passedUpPk:vector(packetBytes) ETV
attr interpolationmode none
attr source packetSentToUpper
attr title "packets passed to higher layer, vector(packetBytes)"
vector 12 Prueba2.switchArriba[0].eth[1].mac packetReceivedFromUpper:vector(packetBytes) ETV
attr interpolationmode none
attr source packetReceivedFromUpper
attr title "packet bytes from higher layer, vector(packetBytes)"
vector 13 Prueba2.switchArriba[0].eth[1].mac.queue packetPushed:vector(packetBytes) ETV
attr interpolationmode none
attr title "packet pushed, vector(packetBytes)"
vector 14 Prueba2.switchArriba[0].eth[1].mac.queue queueLength:vector ETV
attr interpolationmode sample-hold
attr source "count(packetPushed) - count(packetPopped) - count(packetRemoved) - count(packetDropped)"
attr title "queue length, vector"
vector 15 Prueba2.switchArriba[0].eth[1].mac.queue packetPopped:vector(packetBytes) ETV
attr interpolationmode none
attr title "packet popped, vector(packetBytes)"
vector 16 Prueba2.switchArriba[0].eth[1].mac.queue queueingTime:vector ETV
attr interpolationmode none
attr source queueingTime(packetPopped)
attr title "queueing times, vector"
attr unit s
vector 17 Prueba2.switchArriba[0].eth[2].mac packetReceivedFromUpper:vector(packetBytes) ETV
attr interpolationmode none
attr source packetReceivedFromUpper
attr title "packet bytes from higher layer, vector(packetBytes)"
vector 18 Prueba2.switchArriba[0].eth[2].mac.queue packetPushed:vector(packetBytes) ETV
attr interpolationmode none
attr title "packet pushed, vector(packetBytes)"
vector 19 Prueba2.switchArriba[0].eth[2].mac.queue queueLength:vector ETV
attr interpolationmode sample-hold
attr source "count(packetPushed) - count(packetPopped) - count(packetRemoved) - count(packetDropped)"
attr title "queue length, vector"
vector 20 Prueba2.switchArriba[0].eth[2].mac.queue packetPopped:vector(packetBytes) ETV
attr interpolationmode none
attr title "packet popped, vector(packetBytes)"
vector 21 Prueba2.switchArriba[0].eth[2].mac.queue queueingTime:vector ETV
attr interpolationmode none
attr source queueingTime(packetPopped)
attr title "queueing times, vector"
attr unit s
vector 22 Prueba2.switchArriba[0].eth[3].mac packetReceivedFromUpper:vector(packetBytes) ETV
attr interpolationmode none
attr source packetReceivedFromUpper
attr title "packet bytes from higher layer, vector(packetBytes)"
vector 23 Prueba2.switchArriba[0].eth[3].mac.queue packetPushed:vector(packetBytes) ETV
attr interpolationmode none
attr title "packet pushed, vector(packetBytes)"
vector 24 Prueba2.switchArriba[0].eth[3].mac.queue queueLength:vector ETV
attr interpolationmode sample-hold
attr source "count(packetPushed) - count(packetPopped) - count(packetRemoved) - count(packetDropped)"
attr title "queue length, vector"
vector 25 Prueba2.switchArriba[0].eth[3].mac.queue packetPopped:vector(packetBytes) ETV
attr interpolationmode none
attr title "packet popped, vector(packetBytes)"
vector 26 Prueba2.switchArriba[0].eth[3].mac.queue queueingTime:vector ETV
attr interpolationmode none
attr source queueingTime(packetPopped)
attr title "queueing times, vector"
attr unit s
vector 27 Prueba2.switchArriba[0].eth[4].mac packetReceivedFromUpper:vector(packetBytes) ETV
attr interpolationmode none
attr source packetReceivedFromUpper
attr title "packet bytes from higher layer, vector(packetBytes)"
vector 28 Prueba2.switchArriba[0].eth[4].mac.queue packetPushed:vector(packetBytes) ETV
attr interpolationmode none
attr title "packet pushed, vector(packetBytes)"
vector 29 Prueba2.switchArriba[0].eth[4].mac.queue queueLength:vector ETV
attr interpolationmode sample-hold
attr source "count(packetPushed) - count(packetPopped) - count(packetRemoved) - count(packetDropped)"
attr title "queue length, vector"
vector 30 Prueba2.switchArriba[0].eth[4].mac.queue packetPopped:vector(packetBytes) ETV
attr interpolationmode none
attr title "packet popped, vector(packetBytes)"
vector 31 Prueba2.switchArriba[0].eth[4].mac.queue queueingTime:vector ETV
attr interpolationmode none
attr source queueingTime(packetPopped)
attr title "queueing times, vector"
attr unit s
vector 32 Prueba2.switchArriba[0].eth[5].mac packetReceivedFromUpper:vector(packetBytes) ETV
attr interpolationmode none
attr source packetReceivedFromUpper
attr title "packet bytes from higher layer, vector(packetBytes)"
vector 33 Prueba2.switchArriba[0].eth[5].mac.queue packetPushed:vector(packetBytes) ETV
attr interpolationmode none
attr title "packet pushed, vector(packetBytes)"
vector 34 Prueba2.switchArriba[0].eth[5].mac.queue queueLength:vector ETV
attr interpolationmode sample-hold
attr source "count(packetPushed) - count(packetPopped) - count(packetRemoved) - count(packetDropped)"
attr title "queue length, vector"
vector 35 Prueba2.switchArriba[0].eth[5].mac.queue packetPopped:vector(packetBytes) ETV
attr interpolationmode none
attr title "packet popped, vector(packetBytes)"
vector 36 Prueba2.switchArriba[0].eth[5].mac.queue queueingTime:vector ETV
attr interpolationmode none
attr source queueingTime(packetPopped)
attr title "queueing times, vector"
attr unit s
vector 37 Prueba2.switchArriba[0].eth[6].mac packetReceivedFromUpper:vector(packetBytes) ETV
attr interpolationmode none
attr source packetReceivedFromUpper
attr title "packet bytes from higher layer, vector(packetBytes)"
vector 38 Prueba2.switchArriba[0].eth[6].mac.queue packetPushed:vector(packetBytes) ETV
attr interpolationmode none
attr title "packet pushed, vector(packetBytes)"
vector 39 Prueba2.switchArriba[0].eth[6].mac.queue queueLength:vector ETV
attr interpolationmode sample-hold
attr source "count(packetPushed) - count(packetPopped) - count(packetRemoved) - count(packetDropped)"
attr title "queue length, vector"
vector 40 Prueba2.switchArriba[0].eth[6].mac.queue packetPopped:vector(packetBytes) ETV
attr interpolationmode none
attr title "packet popped, vector(packetBytes)"
vector 41 Prueba2.switchArriba[0].eth[6].mac.queue queueingTime:vector ETV
attr interpolationmode none
attr source queueingTime(packetPopped)
attr title "queueing times, vector"
attr unit s
vector 42 Prueba2.switchArriba[0].eth[7].mac packetReceivedFromUpper:vector(packetBytes) ETV
attr interpolationmode none
attr source packetReceivedFromUpper
attr title "packet bytes from higher layer, vector(packetBytes)"
vector 43 Prueba2.switchArriba[0].eth[7].mac.queue packetPushed:vector(packetBytes) ETV
attr interpolationmode none
attr title "packet pushed, vector(packetBytes)"
vector 44 Prueba2.switchArriba[0].eth[7].mac.queue queueLength:vector ETV
attr interpolationmode sample-hold
attr source "count(packetPushed) - count(packetPopped) - count(packetRemoved) - count(packetDropped)"
attr title "queue length, vector"
vector 45 Prueba2.switchArriba[0].eth[7].mac.queue packetPopped:vector(packetBytes) ETV
attr interpolationmode none
attr title "packet popped, vector(packetBytes)"
vector 46 Prueba2.switchArriba[0].eth[7].mac.queue queueingTime:vector ETV
attr interpolationmode none
attr source queueingTime(packetPopped)
attr title "queueing times, vector"
attr unit s
vector 47 Prueba2.switchArriba[0].eth[8].mac packetReceivedFromUpper:vector(packetBytes) ETV
attr interpolationmode none
attr source packetReceivedFromUpper
attr title "packet bytes from higher layer, vector(packetBytes)"
vector 48 Prueba2.switchArriba[0].eth[8].mac.queue packetPushed:vector(packetBytes) ETV
attr interpolationmode none
attr title "packet pushed, vector(packetBytes)"
vector 49 Prueba2.switchArriba[0].eth[8].mac.queue queueLength:vector ETV
attr interpolationmode sample-hold
attr source "count(packetPushed) - count(packetPopped) - count(packetRemoved) - count(packetDropped)"
attr title "queue length, vector"
vector 50 Prueba2.switchArriba[0].eth[8].mac.queue packetPopped:vector(packetBytes) ETV
attr interpolationmode none
attr title "packet popped, vector(packetBytes)"
vector 51 Prueba2.switchArriba[0].eth[8].mac.queue queueingTime:vector ETV
attr interpolationmode none
attr source queueingTime(packetPopped)
attr title "queueing times, vector"
attr unit s
vector 52 Prueba2.switchArriba[0].eth[9].mac packetReceivedFromUpper:vector(packetBytes) ETV
attr interpolationmode none
attr source packetReceivedFromUpper
attr title "packet bytes from higher layer, vector(packetBytes)"
vector 53 Prueba2.switchArriba[0].eth[9].mac.queue packetPushed:vector(packetBytes) ETV
attr interpolationmode none
attr title "packet pushed, vector(packetBytes)"
vector 54 Prueba2.switchArriba[0].eth[9].mac.queue queueLength:vector ETV
attr interpolationmode sample-hold
attr source "count(packetPushed) - count(packetPopped) - count(packetRemoved) - count(packetDropped)"
attr title "queue length, vector"
vector 55 Prueba2.switchArriba[0].eth[9].mac.queue packetPopped:vector(packetBytes) ETV
attr interpolationmode none
attr title "packet popped, vector(packetBytes)"
vector 56 Prueba2.switchArriba[0].eth[9].mac.queue queueingTime:vector ETV
attr interpolationmode none
attr source queueingTime(packetPopped)
attr title "queueing times, vector"
attr unit s
vector 57 Prueba2.switchArriba[0].eth[10].mac packetReceivedFromUpper:vector(packetBytes) ETV
attr interpolationmode none
attr source packetReceivedFromUpper
attr title "packet bytes from higher layer, vector(packetBytes)"
vector 58 Prueba2.switchArriba[0].eth[10].mac.queue packetPushed:vector(packetBytes) ETV
attr interpolationmode none
attr title "packet pushed, vector(packetBytes)"
vector 59 Prueba2.switchArriba[0].eth[10].mac.queue queueLength:vector ETV
attr interpolationmode sample-hold
attr source "count(packetPushed) - count(packetPopped) - count(packetRemoved) - count(packetDropped)"
attr title "queue length, vector"
vector 60 Prueba2.switchArriba[0].eth[10].mac.queue packetPopped:vector(packetBytes) ETV
attr interpolationmode none
attr title "packet popped, vector(packetBytes)"
vector 61 Prueba2.switchArriba[0].eth[10].mac.queue queueingTime:vector ETV
attr interpolationmode none
attr source queueingTime(packetPopped)
attr title "queueing times, vector"
attr unit s
vector 62 Prueba2.switchArriba[0].eth[11].mac packetReceivedFromUpper:vector(packetBytes) ETV
attr interpolationmode none
attr source packetReceivedFromUpper
attr title "packet bytes from higher layer, vector(packetBytes)"
vector 63 Prueba2.switchArriba[0].eth[11].mac.queue packetPushed:vector(packetBytes) ETV
attr interpolationmode none
attr title "packet pushed, vector(packetBytes)"
vector 64 Prueba2.switchArriba[0].eth[11].mac.queue queueLength:vector ETV
attr interpolationmode sample-hold
attr source "count(packetPushed) - count(packetPopped) - count(packetRemoved) - count(packetDropped)"
attr title "queue length, vector"
vector 65 Prueba2.switchArriba[0].eth[11].mac.queue packetPopped:vector(packetBytes) ETV
attr interpolationmode none
attr title "packet popped, vector(packetBytes)"
vector 66 Prueba2.switchArriba[0].eth[11].mac.queue queueingTime:vector ETV
attr interpolationmode none
attr source queueingTime(packetPopped)
attr title "queueing times, vector"
attr unit s
vector 67 Prueba2.switchArriba[0].eth[12].mac packetReceivedFromUpper:vector(packetBytes) ETV
attr interpolationmode none
attr source packetReceivedFromUpper
attr title "packet bytes from higher layer, vector(packetBytes)"
vector 68 Prueba2.switchArriba[0].eth[12].mac.queue packetPushed:vector(packetBytes) ETV
attr interpolationmode none
attr title "packet pushed, vector(packetBytes)"
vector 69 Prueba2.switchArriba[0].eth[12].mac.queue queueLength:vector ETV
attr interpolationmode sample-hold
attr source "count(packetPushed) - count(packetPopped) - count(packetRemoved) - count(packetDropped)"
attr title "queue length, vector"
vector 70 Prueba2.switchArriba[0].eth[12].mac.queue packetPopped:vector(packetBytes) ETV
attr interpolationmode none
attr title "packet popped, vector(packetBytes)"
vector 71 Prueba2.switchArriba[0].eth[12].mac.queue queueingTime:vector ETV
attr interpolationmode none
attr source queueingTime(packetPopped)
attr title "queueing times, vector"
attr unit s
vector 72 Prueba2.switchArriba[0].eth[13].mac packetReceivedFromUpper:vector(packetBytes) ETV
attr interpolationmode none
attr source packetReceivedFromUpper
attr title "packet bytes from higher layer, vector(packetBytes)"
vector 73 Prueba2.switchArriba[0].eth[13].mac.queue packetPushed:vector(packetBytes) ETV
attr interpolationmode none
attr title "packet pushed, vector(packetBytes)"
vector 74 Prueba2.switchArriba[0].eth[13].mac.queue queueLength:vector ETV
attr interpolationmode sample-hold
attr source "count(packetPushed) - count(packetPopped) - count(packetRemoved) - count(packetDropped)"
attr title "queue length, vector"
vector 75 Prueba2.switchArriba[0].eth[13].mac.queue packetPopped:vector(packetBytes) ETV
attr interpolationmode none
attr title "packet popped, vector(packetBytes)"
vector 76 Prueba2.switchArriba[0].eth[13].mac.queue queueingTime:vector ETV
attr interpolationmode none
attr source queueingTime(packetPopped)
attr title "queueing times, vector"
attr unit s
vector 77 Prueba2.switchArriba[0].eth[14].mac packetReceivedFromUpper:vector(packetBytes) ETV
attr interpolationmode none
attr source packetReceivedFromUpper
attr title "packet bytes from higher layer, vector(packetBytes)"
vector 78 Prueba2.switchArriba[0].eth[14].mac.queue packetPushed:vector(packetBytes) ETV
attr interpolationmode none
attr title "packet pushed, vector(packetBytes)"
vector 79 Prueba2.switchArriba[0].eth[14].mac.queue queueLength:vector ETV
attr interpolationmode sample-hold
attr source "count(packetPushed) - count(packetPopped) - count(packetRemoved) - count(packetDropped)"
attr title "queue length, vector"
vector 80 Prueba2.switchArriba[0].eth[14].mac.queue packetPopped:vector(packetBytes) ETV
attr interpolationmode none
attr title "packet popped, vector(packetBytes)"
vector 81 Prueba2.switchArriba[0].eth[14].mac.queue queueingTime:vector ETV
attr interpolationmode none
attr source queueingTime(packetPopped)
attr title "queueing times, vector"
attr unit s
vector 82 Prueba2.switchArriba[0].eth[15].mac packetReceivedFromUpper:vector(packetBytes) ETV
attr interpolationmode none
attr source packetReceivedFromUpper
attr title "packet bytes from higher layer, vector(packetBytes)"
vector 83 Prueba2.switchArriba[0].eth[15].mac.queue packetPushed:vector(packetBytes) ETV
attr interpolationmode none
attr title "packet pushed, vector(packetBytes)"
vector 84 Prueba2.switchArriba[0].eth[15].mac.queue queueLength:vector ETV
attr interpolationmode sample-hold
attr source "count(packetPushed) - count(packetPopped) - count(packetRemoved) - count(packetDropped)"
attr title "queue length, vector"
vector 85 Prueba2.switchArriba[0].eth[15].mac.queue packetPopped:vector(packetBytes) ETV
attr interpolationmode none
attr title "packet popped, vector(packetBytes)"
vector 86 Prueba2.switchArriba[0].eth[15].mac.queue queueingTime:vector ETV
attr interpolationmode none
attr source queueingTime(packetPopped)
attr title "queueing times, vector"
attr unit s
vector 87 Prueba2.switchArriba[0].eth[1].mac txPk:vector(packetBytes) ETV
attr interpolationmode none
attr source packetSentToLower
attr title "packets transmitted, vector(packetBytes)"
vector 88 Prueba2.switchArriba[0].eth[2].mac txPk:vector(packetBytes) ETV
attr interpolationmode none
attr source packetSentToLower
attr title "packets transmitted, vector(packetBytes)"
vector 89 Prueba2.switchArriba[0].eth[3].mac txPk:vector(packetBytes) ETV
attr interpolationmode none
attr source packetSentToLower
attr title "packets transmitted, vector(packetBytes)"
vector 90 Prueba2.switchArriba[0].eth[4].mac txPk:vector(packetBytes) ETV
attr interpolationmode none
attr source packetSentToLower
attr title "packets transmitted, vector(packetBytes)"
vector 91 Prueba2.switchArriba[0].eth[5].mac txPk:vector(packetBytes) ETV
attr interpolationmode none
attr source packetSentToLower
attr title "packets transmitted, vector(packetBytes)"
vector 92 Prueba2.switchArriba[0].eth[6].mac txPk:vector(packetBytes) ETV
attr interpolationmode none
attr source packetSentToLower
attr title "packets transmitted, vector(packetBytes)"
vector 93 Prueba2.switchArriba[0].eth[7].mac txPk:vector(packetBytes) ETV
attr interpolationmode none
attr source packetSentToLower
attr title "packets transmitted, vector(packetBytes)"
vector 94 Prueba2.switchArriba[0].eth[8].mac txPk:vector(packetBytes) ETV
attr interpolationmode none
attr source packetSentToLower
attr title "packets transmitted, vector(packetBytes)"
vector 95 Prueba2.switchArriba[0].eth[9].mac txPk:vector(packetBytes) ETV
attr interpolationmode none
attr source packetSentToLower
attr title "packets transmitted, vector(packetBytes)"
vector 96 Prueba2.switchArriba[0].eth[10].mac txPk:vector(packetBytes) ETV
attr interpolationmode none
attr source packetSentToLower
attr title "packets transmitted, vector(packetBytes)"
vector 97 Prueba2.switchArriba[0].eth[11].mac txPk:vector(packetBytes) ETV
attr interpolationmode none
attr source packetSentToLower
attr title "packets transmitted, vector(packetBytes)"
vector 98 Prueba2.switchArriba[0].eth[12].mac txPk:vector(packetBytes) ETV
attr interpolationmode none
attr source packetSentToLower
attr title "packets transmitted, vector(packetBytes)"
vector 99 Prueba2.switchArriba[0].eth[13].mac txPk:vector(packetBytes) ETV
attr interpolationmode none
attr source packetSentToLower
attr title "packets transmitted, vector(packetBytes)"
vector 100 Prueba2.switchArriba[0].eth[14].mac txPk:vector(packetBytes) ETV
attr interpolationmode none
attr source packetSentToLower
attr title "packets transmitted, vector(packetBytes)"
vector 101 Prueba2.switchArriba[0].eth[15].mac txPk:vector(packetBytes) ETV
attr interpolationmode none
attr source packetSentToLower
attr title "packets transmitted, vector(packetBytes)"
vector 102 Prueba2.host1[1].eth[0].mac rxPkOk:vector(packetBytes) ETV
attr interpolationmode none
attr source rxPkOk
attr title "packets received OK, vector(packetBytes)"
vector 103 Prueba2.host1[1].eth[0].mac passedUpPk:vector(packetBytes) ETV
attr interpolationmode none
attr source packetSentToUpper
attr title "packets passed to higher layer, vector(packetBytes)"
vector 104 Prueba2.host1[2].eth[0].mac rxPkOk:vector(packetBytes) ETV
attr interpolationmode none
attr source rxPkOk
attr title "packets received OK, vector(packetBytes)"
vector 105 Prueba2.host1[2].eth[0].mac passedUpPk:vector(packetBytes) ETV
attr interpolationmode none
attr source packetSentToUpper
attr title "packets passed to higher layer, vector(packetBytes)"
vector 106 Prueba2.host1[3].eth[0].mac rxPkOk:vector(packetBytes) ETV
attr interpolationmode none
attr source rxPkOk
attr title "packets received OK, vector(packetBytes)"
vector 107 Prueba2.host1[3].eth[0].mac passedUpPk:vector(packetBytes) ETV
attr interpolationmode none
attr source packetSentToUpper
attr title "packets passed to higher layer, vector(packetBytes)"
vector 108 Prueba2.host1[4].eth[0].mac rxPkOk:vector(packetBytes) ETV
attr interpolationmode none
attr source rxPkOk
attr title "packets received OK, vector(packetBytes)"
vector 109 Prueba2.host1[4].eth[0].mac passedUpPk:vector(packetBytes) ETV
attr interpolationmode none
attr source packetSentToUpper
attr title "packets passed to higher layer, vector(packetBytes)"
vector 110 Prueba2.host1[5].eth[0].mac rxPkOk:vector(packetBytes) ETV
attr interpolationmode none
attr source rxPkOk
attr title "packets received OK, vector(packetBytes)"
vector 111 Prueba2.host1[5].eth[0].mac passedUpPk:vector(packetBytes) ETV
attr interpolationmode none
attr source packetSentToUpper
attr title "packets passed to higher layer, vector(packetBytes)"
vector 112 Prueba2.host1[6].eth[0].mac rxPkOk:vector(packetBytes) ETV
attr interpolationmode none
attr source rxPkOk
attr title "packets received OK, vector(packetBytes)"
vector 113 Prueba2.host1[6].eth[0].mac passedUpPk:vector(packetBytes) ETV
attr interpolationmode none
attr source packetSentToUpper
attr title "packets passed to higher layer, vector(packetBytes)"
vector 114 Prueba2.host1[7].eth[0].mac rxPkOk:vector(packetBytes) ETV
attr interpolationmode none
attr source rxPkOk
attr title "packets received OK, vector(packetBytes)"
vector 115 Prueba2.host1[7].eth[0].mac passedUpPk:vector(packetBytes) ETV
attr interpolationmode none
attr source packetSentToUpper
attr title "packets passed to higher layer, vector(packetBytes)"
vector 116 Prueba2.switchGeneral[0].eth[0].mac rxPkOk:vector(packetBytes) ETV
attr interpolationmode none
attr source rxPkOk
attr title "packets received OK, vector(packetBytes)"
vector 117 Prueba2.switchGeneral[0].eth[0].mac passedUpPk:vector(packetBytes) ETV
attr interpolationmode none
attr source packetSentToUpper
attr title "packets passed to higher layer, vector(packetBytes)"
vector 118 Prueba2.switchGeneral[1].eth[0].mac rxPkOk:vector(packetBytes) ETV
attr interpolationmode none
attr source rxPkOk
attr title "packets received OK, vector(packetBytes)"
vector 119 Prueba2.switchGeneral[1].eth[0].mac passedUpPk:vector(packetBytes) ETV
attr interpolationmode none
attr source packetSentToUpper
attr title "packets passed to higher layer, vector(packetBytes)"
vector 120 Prueba2.switchGeneral[2].eth[0].mac rxPkOk:vector(packetBytes) ETV
attr interpolationmode none
attr source rxPkOk
attr title "packets received OK, vector(packetBytes)"
vector 121 Prueba2.switchGeneral[2].eth[0].mac passedUpPk:vector(packetBytes) ETV
attr interpolationmode none
attr source packetSentToUpper
attr title "packets passed to higher layer, vector(packetBytes)"
vector 122 Prueba2.switchGeneral[3].eth[0].mac rxPkOk:vector(packetBytes) ETV
attr interpolationmode none
attr source rxPkOk
attr title "packets received OK, vector(packetBytes)"
vector 123 Prueba2.switchGeneral[3].eth[0].mac passedUpPk:vector(packetBytes) ETV
attr interpolationmode none
attr source packetSentToUpper
attr title "packets passed to higher layer, vector(packetBytes)"
vector 124 Prueba2.switchGeneral[4].eth[0].mac rxPkOk:vector(packetBytes) ETV
attr interpolationmode none
attr source rxPkOk
attr title "packets received OK, vector(packetBytes)"
vector 125 Prueba2.switchGeneral[4].eth[0].mac passedUpPk:vector(packetBytes) ETV
attr interpolationmode none
attr source packetSentToUpper
attr title "packets passed to higher layer, vector(packetBytes)"
vector 126 Prueba2.switchGeneral[5].eth[0].mac rxPkOk:vector(packetBytes) ETV
attr interpolationmode none
attr source rxPkOk
attr title "packets received OK, vector(packetBytes)"
vector 127 Prueba2.switchGeneral[5].eth[0].mac passedUpPk:vector(packetBytes) ETV
attr interpolationmode none
attr source packetSentToUpper
attr title "packets passed to higher layer, vector(packetBytes)"
vector 128 Prueba2.switchGeneral[6].eth[0].mac rxPkOk:vector(packetBytes) ETV
attr interpolationmode none
attr source rxPkOk
attr title "packets received OK, vector(packetBytes)"
vector 129 Prueba2.switchGeneral[6].eth[0].mac passedUpPk:vector(packetBytes) ETV
attr interpolationmode none
attr source packetSentToUpper
attr title "packets passed to higher layer, vector(packetBytes)"
vector 130 Prueba2.switchGeneral[7].eth[0].mac rxPkOk:vector(packetBytes) ETV
attr interpolationmode none
attr source rxPkOk
attr title "packets received OK, vector(packetBytes)"
vector 131 Prueba2.switchGeneral[7].eth[0].mac passedUpPk:vector(packetBytes) ETV
attr interpolationmode none
attr source packetSentToUpper
attr title "packets passed to higher layer, vector(packetBytes)"
vector 132 Prueba2.host1[1].eth[0].encap decapPk:vector(packetBytes) ETV
attr interpolationmode none
attr source decapPk
attr title "packets decapsulated, vector(packetBytes)"
vector 133 Prueba2.host1[2].eth[0].encap decapPk:vector(packetBytes) ETV
attr interpolationmode none
attr source decapPk
attr title "packets decapsulated, vector(packetBytes)"
vector 134 Prueba2.host1[3].eth[0].encap decapPk:vector(packetBytes) ETV
attr interpolationmode none
attr source decapPk
attr title "packets decapsulated, vector(packetBytes)"
vector 135 Prueba2.host1[4].eth[0].encap decapPk:vector(packetBytes) ETV
attr interpolationmode none
attr source decapPk
attr title "packets decapsulated, vector(packetBytes)"
vector 136 Prueba2.host1[5].eth[0].encap decapPk:vector(packetBytes) ETV
attr interpolationmode none
attr source decapPk
attr title "packets decapsulated, vector(packetBytes)"
vector 137 Prueba2.host1[6].eth[0].encap decapPk:vector(packetBytes) ETV
attr interpolationmode none
attr source decapPk
attr title "packets decapsulated, vector(packetBytes)"
vector 138 Prueba2.host1[7].eth[0].encap decapPk:vector(packetBytes) ETV
attr interpolationmode none
attr source decapPk
attr title "packets decapsulated, vector(packetBytes)"
vector 139 Prueba2.switchGeneral[0].eth[1].mac packetReceivedFromUpper:vector(packetBytes) ETV
attr interpolationmode none
attr source packetReceivedFromUpper
attr title "packet bytes from higher layer, vector(packetBytes)"
vector 140 Prueba2.switchGeneral[0].eth[1].mac.queue packetPushed:vector(packetBytes) ETV
attr interpolationmode none
attr title "packet pushed, vector(packetBytes)"
vector 141 Prueba2.switchGeneral[0].eth[1].mac.queue queueLength:vector ETV
attr interpolationmode sample-hold
attr source "count(packetPushed) - count(packetPopped) - count(packetRemoved) - count(packetDropped)"
attr title "queue length, vector"
vector 142 Prueba2.switchGeneral[0].eth[1].mac.queue packetPopped:vector(packetBytes) ETV
attr interpolationmode none
attr title "packet popped, vector(packetBytes)"
vector 143 Prueba2.switchGeneral[0].eth[1].mac.queue queueingTime:vector ETV
attr interpolationmode none
attr source queueingTime(packetPopped)
attr title "queueing times, vector"
attr unit s
vector 144 Prueba2.switchGeneral[0].eth[2].mac packetReceivedFromUpper:vector(packetBytes) ETV
attr interpolationmode none
attr source packetReceivedFromUpper
attr title "packet bytes from higher layer, vector(packetBytes)"
vector 145 Prueba2.switchGeneral[0].eth[2].mac.queue packetPushed:vector(packetBytes) ETV
attr interpolationmode none
attr title "packet pushed, vector(packetBytes)"
vector 146 Prueba2.switchGeneral[0].eth[2].mac.queue queueLength:vector ETV
attr interpolationmode sample-hold
attr source "count(packetPushed) - count(packetPopped) - count(packetRemoved) - count(packetDropped)"
attr title "queue length, vector"
vector 147 Prueba2.switchGeneral[0].eth[2].mac.queue packetPopped:vector(packetBytes) ETV
attr interpolationmode none
attr title "packet popped, vector(packetBytes)"
vector 148 Prueba2.switchGeneral[0].eth[2].mac.queue queueingTime:vector ETV
attr interpolationmode none
attr source queueingTime(packetPopped)
attr title "queueing times, vector"
attr unit s
vector 149 Prueba2.switchGeneral[0].eth[3].mac packetReceivedFromUpper:vector(packetBytes) ETV
attr interpolationmode none